<?xml version="1.0" encoding="UTF-8"?>

<!-- generated on 2023-07-15 19:37:42 by Eclipse SUMO sumo Version v1_17_0+0908-fc813c74af8
<configuration xmlns:xsi="http://www.w3.org/2001/XMLSchema-instance" xsi:noNamespaceSchemaLocation="http://sumo.dlr.de/xsd/sumoConfiguration.xsd">

    <input>
        <net-file value="./configurations/osm.net.xml"/>
        <route-files value="./configurations/./Rounds/qtest1/static_trip.rou.xml"/>
    </input>

    <output>
        <netstate-dump value="./configurations/test_dump.xml"/>
        <fcd-output value="./configurations/testTrace.xml"/>
        <summary-output value="./configurations/summary.xml"/>
        <tripinfo-output value="./configurations/trips.trips.xml"/>
        <statistic-output value="./configurations/stats_output.xml"/>
    </output>

    <time>
        <begin value="0"/>
        <end value="200000"/>
    </time>

    <traci_server>
        <remote-port value="53645"/>
    </traci_server>

    <gui_only>
        <quit-on-end value="true"/>
    </gui_only>

</configuration>
-->

<tripinfos xmlns:xsi="http://www.w3.org/2001/XMLSchema-instance" xsi:noNamespaceSchemaLocation="http://sumo.dlr.de/xsd/tripinfo_file.xsd">
    <tripinfo id="6" depart="12.00" departLane="423487448#1_0" departPos="5.10" departSpeed="0.00" departDelay="0.00" arrival="81.00" arrivalLane="423487412#0_3" arrivalPos="35.90" arrivalSpeed="15.74" duration="69.00" routeLength="818.77" waitingTime="4.00" waitingCount="1" stopTime="0.00" timeLoss="17.43" rerouteNo="8" devices="tripinfo_6 fcd_6" vType="DEFAULT_VEHTYPE" speedFactor="1.05" vaporized=""/>
    <tripinfo id="10" depart="27.00" departLane="994901463#0_0" departPos="5.10" departSpeed="0.00" departDelay="0.00" arrival="82.00" arrivalLane="1031308682_2" arrivalPos="188.42" arrivalSpeed="30.10" duration="55.00" routeLength="1110.60" waitingTime="0.00" waitingCount="0" stopTime="0.00" timeLoss="16.19" rerouteNo="5" devices="tripinfo_10 fcd_10" vType="DEFAULT_VEHTYPE" speedFactor="1.09" vaporized=""/>
    <tripinfo id="1" depart="2.00" departLane="-232045940#5_0" departPos="5.10" departSpeed="0.00" departDelay="0.00" arrival="96.00" arrivalLane="423487307#0-AddedOffRampEdge_0" arrivalPos="95.99" arrivalSpeed="24.86" duration="94.00" routeLength="840.92" waitingTime="36.00" waitingCount="1" stopTime="0.00" timeLoss="59.69" rerouteNo="5" devices="tripinfo_1 fcd_1" vType="DEFAULT_VEHTYPE" speedFactor="0.94" vaporized=""/>
    <tripinfo id="0" depart="1.00" departLane="962816052#0_0" departPos="5.10" departSpeed="0.00" departDelay="0.00" arrival="124.00" arrivalLane="1081590615_1" arrivalPos="5.85" arrivalSpeed="22.85" duration="123.00" routeLength="1143.28" waitingTime="48.00" waitingCount="2" stopTime="0.00" timeLoss="77.06" rerouteNo="8" devices="tripinfo_0 fcd_0" vType="DEFAULT_VEHTYPE" speedFactor="1.06" vaporized=""/>
    <tripinfo id="4" depart="7.00" departLane="746893260_0" departPos="5.10" departSpeed="0.00" departDelay="0.00" arrival="129.00" arrivalLane="423487392#0_3" arrivalPos="37.19" arrivalSpeed="15.15" duration="122.00" routeLength="1451.22" waitingTime="37.00" waitingCount="1" stopTime="0.00" timeLoss="53.03" rerouteNo="12" devices="tripinfo_4 fcd_4" vType="DEFAULT_VEHTYPE" speedFactor="1.03" vaporized=""/>
    <tripinfo id="9" depart="24.00" departLane="601725847#0_0" departPos="5.10" departSpeed="0.00" departDelay="0.00" arrival="132.00" arrivalLane="442372081#0_0" arrivalPos="277.91" arrivalSpeed="18.87" duration="108.00" routeLength="1789.42" waitingTime="0.00" waitingCount="0" stopTime="0.00" timeLoss="8.68" rerouteNo="14" devices="tripinfo_9 fcd_9" vType="DEFAULT_VEHTYPE" speedFactor="0.86" vaporized=""/>
    <tripinfo id="31" depart="84.00" departLane="423487448#4_0" departPos="5.10" departSpeed="0.00" departDelay="0.00" arrival="149.00" arrivalLane="423487442#1_0" arrivalPos="81.08" arrivalSpeed="18.00" duration="65.00" routeLength="457.26" waitingTime="27.00" waitingCount="1" stopTime="0.00" timeLoss="39.20" rerouteNo="4" devices="tripinfo_31 fcd_31" vType="DEFAULT_VEHTYPE" speedFactor="1.15" vaporized=""/>
    <tripinfo id="2" depart="6.00" departLane="968816562#0_0" departPos="5.10" departSpeed="0.00" departDelay="0.00" arrival="158.00" arrivalLane="981165359#0_0" arrivalPos="450.47" arrivalSpeed="28.06" duration="152.00" routeLength="2725.26" waitingTime="10.00" waitingCount="1" stopTime="0.00" timeLoss="38.99" rerouteNo="3" devices="tripinfo_2 fcd_2" vType="DEFAULT_VEHTYPE" speedFactor="1.01" vaporized=""/>
    <tripinfo id="43" depart="108.00" departLane="1128434401_0" departPos="5.10" departSpeed="0.00" departDelay="0.00" arrival="175.00" arrivalLane="1130568089#0_2" arrivalPos="56.32" arrivalSpeed="15.48" duration="67.00" routeLength="568.42" waitingTime="15.00" waitingCount="1" stopTime="0.00" timeLoss="36.72" rerouteNo="4" devices="tripinfo_43 fcd_43" vType="DEFAULT_VEHTYPE" speedFactor="1.04" vaporized=""/>
    <tripinfo id="73" depart="149.00" departLane="846857035#0_0" departPos="5.10" departSpeed="0.00" departDelay="0.00" arrival="178.00" arrivalLane="846857039#0_2" arrivalPos="43.36" arrivalSpeed="28.74" duration="29.00" routeLength="322.88" waitingTime="3.00" waitingCount="1" stopTime="0.00" timeLoss="16.81" rerouteNo="4" devices="tripinfo_73 fcd_73" vType="DEFAULT_VEHTYPE" speedFactor="1.06" vaporized=""/>
    <tripinfo id="8" depart="20.00" departLane="423487294_0" departPos="5.10" departSpeed="0.00" departDelay="0.00" arrival="183.00" arrivalLane="597528970#0_1" arrivalPos="75.56" arrivalSpeed="24.63" duration="163.00" routeLength="2051.04" waitingTime="16.00" waitingCount="1" stopTime="0.00" timeLoss="37.38" rerouteNo="14" devices="tripinfo_8 fcd_8" vType="DEFAULT_VEHTYPE" speedFactor="0.94" vaporized=""/>
    <tripinfo id="18" depart="62.00" departLane="-968816562#41_0" departPos="5.10" departSpeed="0.00" departDelay="0.00" arrival="184.00" arrivalLane="423487436#0-AddedOffRampEdge_0" arrivalPos="96.00" arrivalSpeed="13.45" duration="122.00" routeLength="1383.74" waitingTime="25.00" waitingCount="1" stopTime="0.00" timeLoss="46.44" rerouteNo="4" devices="tripinfo_18 fcd_18" vType="DEFAULT_VEHTYPE" speedFactor="0.94" vaporized=""/>
    <tripinfo id="19" depart="70.00" departLane="-601725845#19_0" departPos="5.10" departSpeed="0.00" departDelay="0.00" arrival="186.00" arrivalLane="755435067#0_0" arrivalPos="40.38" arrivalSpeed="20.17" duration="116.00" routeLength="1645.36" waitingTime="26.00" waitingCount="1" stopTime="0.00" timeLoss="50.61" rerouteNo="3" devices="tripinfo_19 fcd_19" vType="DEFAULT_VEHTYPE" speedFactor="1.16" vaporized=""/>
    <tripinfo id="27" depart="79.00" departLane="-15422879#3_0" departPos="5.10" departSpeed="0.00" departDelay="0.00" arrival="189.00" arrivalLane="889075099#0_2" arrivalPos="76.07" arrivalSpeed="13.64" duration="110.00" routeLength="1574.69" waitingTime="11.00" waitingCount="1" stopTime="0.00" timeLoss="33.57" rerouteNo="6" devices="tripinfo_27 fcd_27" vType="DEFAULT_VEHTYPE" speedFactor="0.95" vaporized=""/>
    <tripinfo id="17" depart="48.00" departLane="597602687#0_0" departPos="5.10" departSpeed="0.00" departDelay="0.00" arrival="191.00" arrivalLane="994901463#0_2" arrivalPos="128.52" arrivalSpeed="22.02" duration="143.00" routeLength="1584.00" waitingTime="47.00" waitingCount="2" stopTime="0.00" timeLoss="80.16" rerouteNo="10" devices="tripinfo_17 fcd_17" vType="DEFAULT_VEHTYPE" speedFactor="0.94" vaporized=""/>
    <tripinfo id="35" depart="94.00" departLane="597602686#13_0" departPos="5.10" departSpeed="0.00" departDelay="0.00" arrival="201.00" arrivalLane="968816562#28_0" arrivalPos="533.77" arrivalSpeed="22.39" duration="107.00" routeLength="2029.67" waitingTime="0.00" waitingCount="0" stopTime="0.00" timeLoss="19.81" rerouteNo="3" devices="tripinfo_35 fcd_35" vType="DEFAULT_VEHTYPE" speedFactor="1.02" vaporized=""/>
    <tripinfo id="14" depart="45.00" departLane="423487419#2_0" departPos="0.20" departSpeed="0.00" departDelay="0.00" arrival="203.00" arrivalLane="-808380062#13_0" arrivalPos="1516.68" arrivalSpeed="13.16" duration="158.00" routeLength="2410.50" waitingTime="7.00" waitingCount="1" stopTime="0.00" timeLoss="29.87" rerouteNo="11" devices="tripinfo_14 fcd_14" vType="DEFAULT_VEHTYPE" speedFactor="0.99" vaporized=""/>
    <tripinfo id="13" depart="38.00" departLane="985219577_0" departPos="5.10" departSpeed="0.00" departDelay="0.00" arrival="204.00" arrivalLane="423487448#0_3" arrivalPos="56.24" arrivalSpeed="17.21" duration="166.00" routeLength="2201.72" waitingTime="44.00" waitingCount="2" stopTime="0.00" timeLoss="70.78" rerouteNo="19" devices="tripinfo_13 fcd_13" vType="DEFAULT_VEHTYPE" speedFactor="1.12" vaporized=""/>
    <tripinfo id="54" depart="123.00" departLane="442372093#0_0" departPos="5.10" departSpeed="0.00" departDelay="0.00" arrival="206.00" arrivalLane="889075099#0_0" arrivalPos="76.07" arrivalSpeed="15.02" duration="83.00" routeLength="943.15" waitingTime="10.00" waitingCount="1" stopTime="0.00" timeLoss="22.03" rerouteNo="7" devices="tripinfo_54 fcd_54" vType="DEFAULT_VEHTYPE" speedFactor="1.00" vaporized=""/>
    <tripinfo id="64" depart="132.00" departLane="290026884_0" departPos="5.10" departSpeed="0.00" departDelay="0.00" arrival="206.00" arrivalLane="312824884#0_0" arrivalPos="35.51" arrivalSpeed="12.70" duration="74.00" routeLength="631.89" waitingTime="9.00" waitingCount="1" stopTime="0.00" timeLoss="30.95" rerouteNo="6" devices="tripinfo_64 fcd_64" vType="DEFAULT_VEHTYPE" speedFactor="0.94" vaporized=""/>
    <tripinfo id="33" depart="89.00" departLane="846813575#0_0" departPos="5.10" departSpeed="0.00" departDelay="0.00" arrival="213.00" arrivalLane="994901462#0_0" arrivalPos="550.88" arrivalSpeed="25.14" duration="124.00" routeLength="2434.61" waitingTime="0.00" waitingCount="0" stopTime="0.00" timeLoss="20.51" rerouteNo="6" devices="tripinfo_33 fcd_33" vType="DEFAULT_VEHTYPE" speedFactor="1.17" vaporized=""/>
    <tripinfo id="62" depart="131.00" departLane="423487302#0_0" departPos="5.10" departSpeed="0.00" departDelay="0.00" arrival="216.00" arrivalLane="-15438674#3_0" arrivalPos="143.30" arrivalSpeed="21.49" duration="85.00" routeLength="1008.96" waitingTime="13.00" waitingCount="2" stopTime="0.00" timeLoss="41.93" rerouteNo="6" devices="tripinfo_62 fcd_62" vType="DEFAULT_VEHTYPE" speedFactor="1.02" vaporized=""/>
    <tripinfo id="11" depart="28.00" departLane="423487419#2_0" departPos="0.20" departSpeed="0.00" departDelay="0.00" arrival="217.00" arrivalLane="846857038#0_0" arrivalPos="46.07" arrivalSpeed="18.78" duration="189.00" routeLength="1392.91" waitingTime="72.00" waitingCount="3" stopTime="0.00" timeLoss="105.61" rerouteNo="18" devices="tripinfo_11 fcd_11" vType="DEFAULT_VEHTYPE" speedFactor="1.03" vaporized=""/>
    <tripinfo id="21" depart="73.00" departLane="442372082_0" departPos="5.10" departSpeed="0.00" departDelay="0.00" arrival="222.00" arrivalLane="423487438#1_2" arrivalPos="85.47" arrivalSpeed="15.42" duration="149.00" routeLength="1456.08" waitingTime="30.00" waitingCount="3" stopTime="0.00" timeLoss="63.72" rerouteNo="12" devices="tripinfo_21 fcd_21" vType="DEFAULT_VEHTYPE" speedFactor="1.01" vaporized=""/>
    <tripinfo id="45" depart="115.00" departLane="423487450#0_0" departPos="5.10" departSpeed="0.00" departDelay="0.00" arrival="222.00" arrivalLane="15440930#1_0" arrivalPos="110.96" arrivalSpeed="7.86" duration="107.00" routeLength="833.12" waitingTime="38.00" waitingCount="1" stopTime="0.00" timeLoss="59.20" rerouteNo="5" devices="tripinfo_45 fcd_45" vType="DEFAULT_VEHTYPE" speedFactor="1.09" vaporized=""/>
    <tripinfo id="86" depart="175.00" departLane="423487442#1_0" departPos="5.10" departSpeed="0.00" departDelay="0.00" arrival="232.00" arrivalLane="295292535_0" arrivalPos="47.33" arrivalSpeed="21.61" duration="57.00" routeLength="627.91" waitingTime="0.00" waitingCount="0" stopTime="0.00" timeLoss="15.51" rerouteNo="6" devices="tripinfo_86 fcd_86" vType="DEFAULT_VEHTYPE" speedFactor="1.00" vaporized=""/>
    <tripinfo id="16" depart="48.00" departLane="908436860#0_0" departPos="5.10" departSpeed="0.00" departDelay="0.00" arrival="237.00" arrivalLane="-755435067#3_0" arrivalPos="40.37" arrivalSpeed="18.28" duration="189.00" routeLength="2168.37" waitingTime="26.00" waitingCount="1" stopTime="0.00" timeLoss="53.91" rerouteNo="11" devices="tripinfo_16 fcd_16" vType="DEFAULT_VEHTYPE" speedFactor="0.88" vaporized=""/>
    <tripinfo id="59" depart="129.00" departLane="423487444#0-AddedOffRampEdge_0" departPos="5.10" departSpeed="0.00" departDelay="0.00" arrival="237.00" arrivalLane="423487256#0_0" arrivalPos="41.39" arrivalSpeed="26.03" duration="108.00" routeLength="1193.25" waitingTime="29.00" waitingCount="2" stopTime="0.00" timeLoss="50.98" rerouteNo="7" devices="tripinfo_59 fcd_59" vType="DEFAULT_VEHTYPE" speedFactor="0.97" vaporized=""/>
    <tripinfo id="58" depart="128.00" departLane="104717227_0" departPos="5.10" departSpeed="0.00" departDelay="0.00" arrival="243.00" arrivalLane="846857038#0_1" arrivalPos="46.07" arrivalSpeed="5.65" duration="115.00" routeLength="1673.59" waitingTime="8.00" waitingCount="1" stopTime="0.00" timeLoss="42.78" rerouteNo="13" devices="tripinfo_58 fcd_58" vType="DEFAULT_VEHTYPE" speedFactor="1.02" vaporized=""/>
    <tripinfo id="105" depart="200.00" departLane="978715535#2_0" departPos="5.10" departSpeed="0.00" departDelay="0.00" arrival="243.00" arrivalLane="1081590615_1" arrivalPos="5.85" arrivalSpeed="23.58" duration="43.00" routeLength="697.52" waitingTime="0.00" waitingCount="0" stopTime="0.00" timeLoss="14.06" rerouteNo="4" devices="tripinfo_105 fcd_105" vType="DEFAULT_VEHTYPE" speedFactor="1.07" vaporized=""/>
    <tripinfo id="61" depart="131.00" departLane="15458116_0" departPos="5.10" departSpeed="0.00" departDelay="0.00" arrival="246.00" arrivalLane="746893259#0_0" arrivalPos="53.23" arrivalSpeed="24.28" duration="115.00" routeLength="1520.09" waitingTime="31.00" waitingCount="1" stopTime="0.00" timeLoss="52.73" rerouteNo="6" devices="tripinfo_61 fcd_61" vType="DEFAULT_VEHTYPE" speedFactor="1.12" vaporized=""/>
    <tripinfo id="114" depart="224.00" departLane="423487462_0" departPos="5.10" departSpeed="0.00" departDelay="0.00" arrival="246.00" arrivalLane="423487448#4_2" arrivalPos="80.92" arrivalSpeed="16.61" duration="22.00" routeLength="238.60" waitingTime="0.00" waitingCount="0" stopTime="0.00" timeLoss="7.25" rerouteNo="2" devices="tripinfo_114 fcd_114" vType="DEFAULT_VEHTYPE" speedFactor="1.10" vaporized=""/>
    <tripinfo id="20" depart="70.00" departLane="1081590613#0_0" departPos="5.10" departSpeed="0.00" departDelay="0.00" arrival="247.00" arrivalLane="683976549#0_0" arrivalPos="181.62" arrivalSpeed="22.50" duration="177.00" routeLength="1878.12" waitingTime="62.00" waitingCount="2" stopTime="0.00" timeLoss="89.10" rerouteNo="14" devices="tripinfo_20 fcd_20" vType="DEFAULT_VEHTYPE" speedFactor="1.02" vaporized=""/>
    <tripinfo id="119" depart="233.00" departLane="423505994#0_0" departPos="5.10" departSpeed="0.00" departDelay="0.00" arrival="249.00" arrivalLane="423505994#0_0" arrivalPos="209.16" arrivalSpeed="16.73" duration="16.00" routeLength="204.06" waitingTime="0.00" waitingCount="0" stopTime="0.00" timeLoss="3.70" rerouteNo="0" devices="tripinfo_119 fcd_119" vType="DEFAULT_VEHTYPE" speedFactor="1.07" vaporized=""/>
    <tripinfo id="38" depart="100.00" departLane="1081590611_0" departPos="5.10" departSpeed="0.00" departDelay="0.00" arrival="251.00" arrivalLane="683889359#8_0" arrivalPos="413.52" arrivalSpeed="23.59" duration="151.00" routeLength="2113.54" waitingTime="22.00" waitingCount="3" stopTime="0.00" timeLoss="50.69" rerouteNo="11" devices="tripinfo_38 fcd_38" vType="DEFAULT_VEHTYPE" speedFactor="1.10" vaporized=""/>
    <tripinfo id="128" depart="242.00" departLane="908435480#0_0" departPos="5.10" departSpeed="0.00" departDelay="0.00" arrival="253.00" arrivalLane="908435480#0_0" arrivalPos="114.56" arrivalSpeed="16.74" duration="11.00" routeLength="109.46" waitingTime="0.00" waitingCount="0" stopTime="0.00" timeLoss="3.97" rerouteNo="0" devices="tripinfo_128 fcd_128" vType="DEFAULT_VEHTYPE" speedFactor="1.12" vaporized=""/>
    <tripinfo id="52" depart="122.00" departLane="-1128434401_0" departPos="5.10" departSpeed="0.00" departDelay="0.00" arrival="255.00" arrivalLane="994901460#0_2" arrivalPos="336.67" arrivalSpeed="28.07" duration="133.00" routeLength="2287.19" waitingTime="14.00" waitingCount="2" stopTime="0.00" timeLoss="48.39" rerouteNo="10" devices="tripinfo_52 fcd_52" vType="DEFAULT_VEHTYPE" speedFactor="1.02" vaporized=""/>
    <tripinfo id="3" depart="6.00" departLane="1081590614#0_0" departPos="5.10" departSpeed="0.00" departDelay="0.00" arrival="257.00" arrivalLane="691318132#0_0" arrivalPos="513.54" arrivalSpeed="29.75" duration="251.00" routeLength="4223.66" waitingTime="32.00" waitingCount="3" stopTime="0.00" timeLoss="80.14" rerouteNo="21" devices="tripinfo_3 fcd_3" vType="DEFAULT_VEHTYPE" speedFactor="1.08" vaporized=""/>
    <tripinfo id="80" depart="159.00" departLane="808587433#0_0" departPos="5.10" departSpeed="0.00" departDelay="0.00" arrival="258.00" arrivalLane="423506031#0-AddedOffRampEdge_0" arrivalPos="93.85" arrivalSpeed="15.28" duration="99.00" routeLength="1116.30" waitingTime="25.00" waitingCount="2" stopTime="0.00" timeLoss="52.99" rerouteNo="6" devices="tripinfo_80 fcd_80" vType="DEFAULT_VEHTYPE" speedFactor="1.03" vaporized=""/>
    <tripinfo id="70" depart="145.00" departLane="755435067#0_0" departPos="5.10" departSpeed="0.00" departDelay="0.00" arrival="259.00" arrivalLane="1031308683#0_2" arrivalPos="26.94" arrivalSpeed="28.34" duration="114.00" routeLength="1860.22" waitingTime="4.00" waitingCount="1" stopTime="0.00" timeLoss="31.61" rerouteNo="11" devices="tripinfo_70 fcd_70" vType="DEFAULT_VEHTYPE" speedFactor="1.02" vaporized=""/>
    <tripinfo id="29" depart="81.00" departLane="746893257#0_0" departPos="5.10" departSpeed="0.00" departDelay="0.00" arrival="262.00" arrivalLane="423487299#0_0" arrivalPos="46.39" arrivalSpeed="14.21" duration="181.00" routeLength="2053.57" waitingTime="29.00" waitingCount="2" stopTime="0.00" timeLoss="64.47" rerouteNo="10" devices="tripinfo_29 fcd_29" vType="DEFAULT_VEHTYPE" speedFactor="0.93" vaporized=""/>
    <tripinfo id="74" depart="151.00" departLane="957134130#0_0" departPos="5.10" departSpeed="0.00" departDelay="0.00" arrival="266.00" arrivalLane="1081590611-AddedOffRampEdge_0" arrivalPos="94.61" arrivalSpeed="20.89" duration="115.00" routeLength="1445.55" waitingTime="23.00" waitingCount="2" stopTime="0.00" timeLoss="49.58" rerouteNo="11" devices="tripinfo_74 fcd_74" vType="DEFAULT_VEHTYPE" speedFactor="0.96" vaporized=""/>
    <tripinfo id="15" depart="46.00" departLane="260359943#0_0" departPos="5.10" departSpeed="0.00" departDelay="0.00" arrival="274.00" arrivalLane="423487416#0_1" arrivalPos="58.13" arrivalSpeed="14.41" duration="228.00" routeLength="2940.37" waitingTime="53.00" waitingCount="3" stopTime="0.00" timeLoss="93.11" rerouteNo="12" devices="tripinfo_15 fcd_15" vType="DEFAULT_VEHTYPE" speedFactor="0.93" vaporized=""/>
    <tripinfo id="81" depart="161.00" departLane="691318132#0_0" departPos="5.10" departSpeed="0.00" departDelay="0.00" arrival="275.00" arrivalLane="597602687#0_0" arrivalPos="88.21" arrivalSpeed="19.19" duration="114.00" routeLength="1592.60" waitingTime="31.00" waitingCount="1" stopTime="0.00" timeLoss="53.02" rerouteNo="2" devices="tripinfo_81 fcd_81" vType="DEFAULT_VEHTYPE" speedFactor="1.00" vaporized=""/>
    <tripinfo id="40" depart="102.00" departLane="962816052#1_0" departPos="5.10" departSpeed="0.00" departDelay="0.00" arrival="277.00" arrivalLane="-746893258#1_0" arrivalPos="36.96" arrivalSpeed="13.92" duration="175.00" routeLength="1485.76" waitingTime="62.00" waitingCount="4" stopTime="0.00" timeLoss="111.27" rerouteNo="9" devices="tripinfo_40 fcd_40" vType="DEFAULT_VEHTYPE" speedFactor="1.03" vaporized=""/>
    <tripinfo id="46" depart="119.00" departLane="423487254_0" departPos="5.10" departSpeed="0.00" departDelay="0.00" arrival="281.00" arrivalLane="808587436#0_0" arrivalPos="775.99" arrivalSpeed="14.40" duration="162.00" routeLength="1837.85" waitingTime="27.00" waitingCount="2" stopTime="0.00" timeLoss="46.99" rerouteNo="4" devices="tripinfo_46 fcd_46" vType="DEFAULT_VEHTYPE" speedFactor="1.00" vaporized=""/>
    <tripinfo id="12" depart="30.00" departLane="755435068_0" departPos="5.10" departSpeed="0.00" departDelay="0.00" arrival="282.00" arrivalLane="-968816562#41_0" arrivalPos="533.80" arrivalSpeed="22.91" duration="252.00" routeLength="2089.78" waitingTime="97.00" waitingCount="4" stopTime="0.00" timeLoss="134.79" rerouteNo="18" devices="tripinfo_12 fcd_12" vType="DEFAULT_VEHTYPE" speedFactor="1.05" vaporized=""/>
    <tripinfo id="5" depart="9.00" departLane="310973089#0_0" departPos="5.10" departSpeed="0.00" departDelay="0.00" arrival="284.00" arrivalLane="423487438#0_3" arrivalPos="42.05" arrivalSpeed="11.74" duration="275.00" routeLength="3216.64" waitingTime="71.00" waitingCount="3" stopTime="0.00" timeLoss="105.66" rerouteNo="14" devices="tripinfo_5 fcd_5" vType="DEFAULT_VEHTYPE" speedFactor="0.83" vaporized=""/>
    <tripinfo id="56" depart="126.00" departLane="597602686#9_0" departPos="5.10" departSpeed="0.00" departDelay="0.00" arrival="284.00" arrivalLane="442372081#0_1" arrivalPos="277.91" arrivalSpeed="19.87" duration="158.00" routeLength="2539.84" waitingTime="6.00" waitingCount="1" stopTime="0.00" timeLoss="38.86" rerouteNo="11" devices="tripinfo_56 fcd_56" vType="DEFAULT_VEHTYPE" speedFactor="0.90" vaporized=""/>
    <tripinfo id="26" depart="78.00" departLane="423487447#2_0" departPos="5.10" departSpeed="0.00" departDelay="0.00" arrival="289.00" arrivalLane="968816564#0_0" arrivalPos="50.74" arrivalSpeed="24.39" duration="211.00" routeLength="2667.64" waitingTime="40.00" waitingCount="4" stopTime="0.00" timeLoss="79.34" rerouteNo="13" devices="tripinfo_26 fcd_26" vType="DEFAULT_VEHTYPE" speedFactor="0.92" vaporized=""/>
    <tripinfo id="85" depart="173.00" departLane="985219577_0" departPos="5.10" departSpeed="0.00" departDelay="0.00" arrival="289.00" arrivalLane="-755435065#2_0" arrivalPos="61.83" arrivalSpeed="21.20" duration="116.00" routeLength="1391.55" waitingTime="27.00" waitingCount="1" stopTime="0.00" timeLoss="51.52" rerouteNo="10" devices="tripinfo_85 fcd_85" vType="DEFAULT_VEHTYPE" speedFactor="0.98" vaporized=""/>
    <tripinfo id="87" depart="176.00" departLane="-968816562#27_0" departPos="5.10" departSpeed="0.00" departDelay="0.00" arrival="294.00" arrivalLane="597602686#9_2" arrivalPos="106.50" arrivalSpeed="22.15" duration="118.00" routeLength="1702.60" waitingTime="24.00" waitingCount="1" stopTime="0.00" timeLoss="48.40" rerouteNo="5" devices="tripinfo_87 fcd_87" vType="DEFAULT_VEHTYPE" speedFactor="1.04" vaporized=""/>
    <tripinfo id="88" depart="177.00" departLane="908435481#0_0" departPos="5.10" departSpeed="0.00" departDelay="0.00" arrival="295.00" arrivalLane="978715535#2_2" arrivalPos="92.64" arrivalSpeed="27.12" duration="118.00" routeLength="1265.46" waitingTime="32.00" waitingCount="3" stopTime="0.00" timeLoss="61.86" rerouteNo="11" devices="tripinfo_88 fcd_88" vType="DEFAULT_VEHTYPE" speedFactor="1.01" vaporized=""/>
    <tripinfo id="47" depart="119.00" departLane="954632489_0" departPos="5.10" departSpeed="0.00" departDelay="0.00" arrival="296.00" arrivalLane="1081590613#0_2" arrivalPos="129.35" arrivalSpeed="19.71" duration="177.00" routeLength="2803.50" waitingTime="21.00" waitingCount="2" stopTime="0.00" timeLoss="53.49" rerouteNo="10" devices="tripinfo_47 fcd_47" vType="DEFAULT_VEHTYPE" speedFactor="0.90" vaporized=""/>
    <tripinfo id="148" depart="268.00" departLane="423487375#0_0" departPos="5.10" departSpeed="0.00" departDelay="0.00" arrival="296.00" arrivalLane="423487359#0_1" arrivalPos="42.21" arrivalSpeed="14.75" duration="28.00" routeLength="292.57" waitingTime="0.00" waitingCount="0" stopTime="0.00" timeLoss="7.51" rerouteNo="3" devices="tripinfo_148 fcd_148" vType="DEFAULT_VEHTYPE" speedFactor="0.97" vaporized=""/>
    <tripinfo id="37" depart="100.00" departLane="260359943#0_0" departPos="5.10" departSpeed="0.00" departDelay="0.00" arrival="297.00" arrivalLane="601725847#0_0" arrivalPos="267.79" arrivalSpeed="25.94" duration="197.00" routeLength="3130.74" waitingTime="22.00" waitingCount="1" stopTime="0.00" timeLoss="74.41" rerouteNo="11" devices="tripinfo_37 fcd_37" vType="DEFAULT_VEHTYPE" speedFactor="1.18" vaporized=""/>
    <tripinfo id="51" depart="121.00" departLane="808587431#0_0" departPos="5.10" departSpeed="0.00" departDelay="0.00" arrival="300.00" arrivalLane="423487359#0_0" arrivalPos="42.21" arrivalSpeed="17.72" duration="179.00" routeLength="2359.62" waitingTime="45.00" waitingCount="1" stopTime="0.00" timeLoss="69.12" rerouteNo="20" devices="tripinfo_51 fcd_51" vType="DEFAULT_VEHTYPE" speedFactor="1.17" vaporized=""/>
    <tripinfo id="55" depart="126.00" departLane="597602686#16_0" departPos="5.10" departSpeed="0.00" departDelay="0.00" arrival="300.00" arrivalLane="423487416#0_0" arrivalPos="58.13" arrivalSpeed="15.32" duration="174.00" routeLength="2260.13" waitingTime="43.00" waitingCount="2" stopTime="0.00" timeLoss="73.12" rerouteNo="4" devices="tripinfo_55 fcd_55" vType="DEFAULT_VEHTYPE" speedFactor="1.00" vaporized=""/>
    <tripinfo id="72" depart="145.00" departLane="423487419#0_0" departPos="5.10" departSpeed="0.00" departDelay="0.00" arrival="301.00" arrivalLane="1026416105#0_0" arrivalPos="745.54" arrivalSpeed="20.35" duration="156.00" routeLength="1989.59" waitingTime="23.00" waitingCount="2" stopTime="0.00" timeLoss="59.27" rerouteNo="9" devices="tripinfo_72 fcd_72" vType="DEFAULT_VEHTYPE" speedFactor="0.94" vaporized=""/>
    <tripinfo id="106" depart="204.00" departLane="985219577_0" departPos="5.10" departSpeed="0.00" departDelay="0.00" arrival="302.00" arrivalLane="889075099#0_0" arrivalPos="76.07" arrivalSpeed="15.19" duration="98.00" routeLength="1508.53" waitingTime="0.00" waitingCount="0" stopTime="0.00" timeLoss="25.57" rerouteNo="10" devices="tripinfo_106 fcd_106" vType="DEFAULT_VEHTYPE" speedFactor="1.01" vaporized=""/>
    <tripinfo id="66" depart="142.00" departLane="423487416#0_0" departPos="5.10" departSpeed="0.00" departDelay="0.00" arrival="307.00" arrivalLane="442372093#1_2" arrivalPos="88.27" arrivalSpeed="14.00" duration="165.00" routeLength="1397.46" waitingTime="40.00" waitingCount="1" stopTime="0.00" timeLoss="65.42" rerouteNo="15" devices="tripinfo_66 fcd_66" vType="DEFAULT_VEHTYPE" speedFactor="0.91" vaporized=""/>
    <tripinfo id="97" depart="189.00" departLane="423487346#0_0" departPos="5.10" departSpeed="0.00" departDelay="0.00" arrival="307.00" arrivalLane="423505999#0_0" arrivalPos="262.32" arrivalSpeed="24.93" duration="118.00" routeLength="1872.40" waitingTime="10.00" waitingCount="1" stopTime="0.00" timeLoss="39.55" rerouteNo="6" devices="tripinfo_97 fcd_97" vType="DEFAULT_VEHTYPE" speedFactor="0.91" vaporized=""/>
    <tripinfo id="140" depart="251.00" departLane="312824884#0_0" departPos="5.10" departSpeed="0.00" departDelay="0.00" arrival="313.00" arrivalLane="478554548#1_2" arrivalPos="78.57" arrivalSpeed="22.85" duration="62.00" routeLength="529.25" waitingTime="18.00" waitingCount="2" stopTime="0.00" timeLoss="43.10" rerouteNo="6" devices="tripinfo_140 fcd_140" vType="DEFAULT_VEHTYPE" speedFactor="1.11" vaporized=""/>
    <tripinfo id="108" depart="206.00" departLane="15440930#1_0" departPos="5.10" departSpeed="0.00" departDelay="1.00" arrival="314.00" arrivalLane="312824882#0_0" arrivalPos="42.36" arrivalSpeed="28.60" duration="108.00" routeLength="955.38" waitingTime="38.00" waitingCount="1" stopTime="0.00" timeLoss="65.66" rerouteNo="6" devices="tripinfo_108 fcd_108" vType="DEFAULT_VEHTYPE" speedFactor="1.06" vaporized=""/>
    <tripinfo id="95" depart="189.00" departLane="601725847#0_0" departPos="5.10" departSpeed="0.00" departDelay="0.00" arrival="315.00" arrivalLane="1013862585#7_0" arrivalPos="275.64" arrivalSpeed="28.38" duration="126.00" routeLength="2045.14" waitingTime="14.00" waitingCount="2" stopTime="0.00" timeLoss="40.65" rerouteNo="8" devices="tripinfo_95 fcd_95" vType="DEFAULT_VEHTYPE" speedFactor="1.06" vaporized=""/>
    <tripinfo id="101" depart="194.00" departLane="1081590611_0" departPos="5.10" departSpeed="0.00" departDelay="0.00" arrival="316.00" arrivalLane="463776120#0_0" arrivalPos="236.51" arrivalSpeed="20.90" duration="122.00" routeLength="1826.24" waitingTime="16.00" waitingCount="1" stopTime="0.00" timeLoss="31.14" rerouteNo="13" devices="tripinfo_101 fcd_101" vType="DEFAULT_VEHTYPE" speedFactor="0.96" vaporized=""/>
    <tripinfo id="107" depart="204.00" departLane="846855219#0_0" departPos="5.10" departSpeed="0.00" departDelay="0.00" arrival="319.00" arrivalLane="423487444#0-AddedOffRampEdge_5" arrivalPos="96.08" arrivalSpeed="16.11" duration="115.00" routeLength="1647.42" waitingTime="33.00" waitingCount="1" stopTime="0.00" timeLoss="50.17" rerouteNo="4" devices="tripinfo_107 fcd_107" vType="DEFAULT_VEHTYPE" speedFactor="1.03" vaporized=""/>
    <tripinfo id="164" depart="305.00" departLane="846857035#0_0" departPos="5.10" departSpeed="0.00" departDelay="0.00" arrival="319.00" arrivalLane="478554548#0_1" arrivalPos="37.77" arrivalSpeed="13.94" duration="14.00" routeLength="88.50" waitingTime="0.00" waitingCount="0" stopTime="0.00" timeLoss="9.07" rerouteNo="1" devices="tripinfo_164 fcd_164" vType="DEFAULT_VEHTYPE" speedFactor="1.05" vaporized=""/>
    <tripinfo id="71" depart="145.00" departLane="601725845#21_0" departPos="5.10" departSpeed="0.00" departDelay="0.00" arrival="323.00" arrivalLane="423487448#0_1" arrivalPos="56.24" arrivalSpeed="14.80" duration="178.00" routeLength="1316.43" waitingTime="61.00" waitingCount="3" stopTime="0.00" timeLoss="91.51" rerouteNo="13" devices="tripinfo_71 fcd_71" vType="DEFAULT_VEHTYPE" speedFactor="0.97" vaporized=""/>