<?xml version="1.0" encoding="UTF-8"?>

<!-- generated on 2023-07-17 15:14:42 by Eclipse SUMO GUI Version v1_17_0+0908-fc813c74af8
<configuration xmlns:xsi="http://www.w3.org/2001/XMLSchema-instance" xsi:noNamespaceSchemaLocation="http://sumo.dlr.de/xsd/sumoConfiguration.xsd">

    <input>
        <net-file value="./configurations/osm.net.xml"/>
        <route-files value="./configurations/./Rounds/qtest4/static_trip.rou.xml"/>
    </input>

    <output>
        <netstate-dump value="./configurations/test_dump.xml"/>
        <fcd-output value="./configurations/testTrace.xml"/>
        <summary-output value="./configurations/summary.xml"/>
        <tripinfo-output value="./configurations/trips.trips.xml"/>
        <statistic-output value="./configurations/stats_output.xml"/>
    </output>

    <time>
        <begin value="0"/>
        <end value="200000"/>
    </time>

    <traci_server>
        <remote-port value="53400"/>
    </traci_server>

    <gui_only>
        <quit-on-end value="true"/>
    </gui_only>

</configuration>
-->

<tripinfos xmlns:xsi="http://www.w3.org/2001/XMLSchema-instance" xsi:noNamespaceSchemaLocation="http://sumo.dlr.de/xsd/tripinfo_file.xsd">
    <tripinfo id="7" depart="5.00" departLane="746893258#0_0" departPos="5.10" departSpeed="0.00" departDelay="0.00" arrival="76.00" arrivalLane="-1128434407#1_1" arrivalPos="45.64" arrivalSpeed="15.73" duration="71.00" routeLength="675.42" waitingTime="2.00" waitingCount="1" stopTime="0.00" timeLoss="24.89" rerouteNo="6" devices="tripinfo_7 fcd_7" vType="DEFAULT_VEHTYPE" speedFactor="0.89" vaporized=""/>
    <tripinfo id="4" depart="3.00" departLane="954632729_0" departPos="5.10" departSpeed="0.00" departDelay="0.00" arrival="85.00" arrivalLane="846857038#0_0" arrivalPos="46.07" arrivalSpeed="27.81" duration="82.00" routeLength="1646.32" waitingTime="4.00" waitingCount="1" stopTime="0.00" timeLoss="22.61" rerouteNo="5" devices="tripinfo_4 fcd_4" vType="DEFAULT_VEHTYPE" speedFactor="1.03" vaporized=""/>
    <tripinfo id="22" depart="23.00" departLane="691318132#0_0" departPos="5.10" departSpeed="0.00" departDelay="0.00" arrival="88.00" arrivalLane="423487442#0_0" arrivalPos="48.71" arrivalSpeed="15.02" duration="65.00" routeLength="1249.30" waitingTime="0.00" waitingCount="0" stopTime="0.00" timeLoss="13.08" rerouteNo="3" devices="tripinfo_22 fcd_22" vType="DEFAULT_VEHTYPE" speedFactor="0.97" vaporized=""/>
    <tripinfo id="38" depart="38.00" departLane="423487438#0_0" departPos="5.10" departSpeed="0.00" departDelay="0.00" arrival="88.00" arrivalLane="312824884#0_0" arrivalPos="35.51" arrivalSpeed="11.17" duration="50.00" routeLength="352.31" waitingTime="6.00" waitingCount="1" stopTime="0.00" timeLoss="30.72" rerouteNo="5" devices="tripinfo_38 fcd_38" vType="DEFAULT_VEHTYPE" speedFactor="1.10" vaporized=""/>
    <tripinfo id="8" depart="6.00" departLane="442372090-AddedOffRampEdge_0" departPos="5.10" departSpeed="0.00" departDelay="0.00" arrival="107.00" arrivalLane="978715536_0" arrivalPos="18.56" arrivalSpeed="25.82" duration="101.00" routeLength="1125.36" waitingTime="17.00" waitingCount="1" stopTime="0.00" timeLoss="39.35" rerouteNo="11" devices="tripinfo_8 fcd_8" vType="DEFAULT_VEHTYPE" speedFactor="0.94" vaporized=""/>
    <tripinfo id="25" depart="27.00" departLane="724861791_0" departPos="5.10" departSpeed="0.00" departDelay="0.00" arrival="125.00" arrivalLane="-1128434406#2_1" arrivalPos="49.27" arrivalSpeed="15.09" duration="98.00" routeLength="1628.05" waitingTime="0.00" waitingCount="0" stopTime="0.00" timeLoss="24.17" rerouteNo="9" devices="tripinfo_25 fcd_25" vType="DEFAULT_VEHTYPE" speedFactor="0.87" vaporized=""/>
    <tripinfo id="0" depart="1.00" departLane="423487302#0_0" departPos="5.10" departSpeed="0.00" departDelay="0.00" arrival="128.00" arrivalLane="423487359#0_1" arrivalPos="42.21" arrivalSpeed="15.42" duration="127.00" routeLength="1810.94" waitingTime="6.00" waitingCount="2" stopTime="0.00" timeLoss="42.79" rerouteNo="13" devices="tripinfo_0 fcd_0" vType="DEFAULT_VEHTYPE" speedFactor="1.06" vaporized=""/>
    <tripinfo id="31" depart="31.00" departLane="423487258#0_0" departPos="5.10" departSpeed="0.00" departDelay="0.00" arrival="132.00" arrivalLane="-755435068_0" arrivalPos="28.31" arrivalSpeed="18.75" duration="101.00" routeLength="1518.76" waitingTime="18.00" waitingCount="2" stopTime="0.00" timeLoss="41.31" rerouteNo="12" devices="tripinfo_31 fcd_31" vType="DEFAULT_VEHTYPE" speedFactor="1.15" vaporized=""/>
    <tripinfo id="35" depart="35.00" departLane="423487450#0_0" departPos="5.10" departSpeed="0.00" departDelay="0.00" arrival="134.00" arrivalLane="988583021#0_0" arrivalPos="72.91" arrivalSpeed="15.76" duration="99.00" routeLength="630.29" waitingTime="47.00" waitingCount="1" stopTime="0.00" timeLoss="59.05" rerouteNo="4" devices="tripinfo_35 fcd_35" vType="DEFAULT_VEHTYPE" speedFactor="1.02" vaporized=""/>
    <tripinfo id="20" depart="23.00" departLane="1081590611-AddedOffRampEdge_0" departPos="5.10" departSpeed="0.00" departDelay="0.00" arrival="140.00" arrivalLane="423506031#0_3" arrivalPos="32.72" arrivalSpeed="11.98" duration="117.00" routeLength="1347.98" waitingTime="23.00" waitingCount="2" stopTime="0.00" timeLoss="40.24" rerouteNo="15" devices="tripinfo_20 fcd_20" vType="DEFAULT_VEHTYPE" speedFactor="1.02" vaporized=""/>
    <tripinfo id="32" depart="32.00" departLane="290026885_0" departPos="5.10" departSpeed="0.00" departDelay="0.00" arrival="141.00" arrivalLane="-746893261#1_0" arrivalPos="285.85" arrivalSpeed="21.18" duration="109.00" routeLength="1486.76" waitingTime="14.00" waitingCount="2" stopTime="0.00" timeLoss="36.75" rerouteNo="8" devices="tripinfo_32 fcd_32" vType="DEFAULT_VEHTYPE" speedFactor="1.01" vaporized=""/>
    <tripinfo id="15" depart="12.00" departLane="423505996#0_0" departPos="5.10" departSpeed="0.00" departDelay="0.00" arrival="145.00" arrivalLane="846817704#0_1" arrivalPos="43.37" arrivalSpeed="24.98" duration="133.00" routeLength="1413.31" waitingTime="54.00" waitingCount="2" stopTime="0.00" timeLoss="78.00" rerouteNo="7" devices="tripinfo_15 fcd_15" vType="DEFAULT_VEHTYPE" speedFactor="0.93" vaporized=""/>
    <tripinfo id="12" depart="7.00" departLane="1128434406#0_0" departPos="5.10" departSpeed="0.00" departDelay="0.00" arrival="151.00" arrivalLane="962896467#3_1" arrivalPos="59.51" arrivalSpeed="27.68" duration="144.00" routeLength="2524.32" waitingTime="32.00" waitingCount="2" stopTime="0.00" timeLoss="55.02" rerouteNo="14" devices="tripinfo_12 fcd_12" vType="DEFAULT_VEHTYPE" speedFactor="1.05" vaporized=""/>
    <tripinfo id="17" depart="15.00" departLane="601725848_0" departPos="5.10" departSpeed="0.00" departDelay="0.00" arrival="153.00" arrivalLane="442372081#5_0" arrivalPos="230.45" arrivalSpeed="20.50" duration="138.00" routeLength="1797.79" waitingTime="16.00" waitingCount="2" stopTime="0.00" timeLoss="47.35" rerouteNo="5" devices="tripinfo_17 fcd_17" vType="DEFAULT_VEHTYPE" speedFactor="0.94" vaporized=""/>
    <tripinfo id="26" depart="28.00" departLane="104727118#0_0" departPos="5.10" departSpeed="0.00" departDelay="0.00" arrival="177.00" arrivalLane="536058718_1" arrivalPos="43.51" arrivalSpeed="24.91" duration="149.00" routeLength="1756.24" waitingTime="23.00" waitingCount="2" stopTime="0.00" timeLoss="43.99" rerouteNo="15" devices="tripinfo_26 fcd_26" vType="DEFAULT_VEHTYPE" speedFactor="0.92" vaporized=""/>
    <tripinfo id="47" depart="47.00" departLane="597528970#0_0" departPos="5.10" departSpeed="0.00" departDelay="0.00" arrival="181.00" arrivalLane="-746893259#2_0" arrivalPos="55.88" arrivalSpeed="19.63" duration="134.00" routeLength="1465.13" waitingTime="27.00" waitingCount="2" stopTime="0.00" timeLoss="63.36" rerouteNo="10" devices="tripinfo_47 fcd_47" vType="DEFAULT_VEHTYPE" speedFactor="0.90" vaporized=""/>
    <tripinfo id="3" depart="4.00" departLane="423487302#0_0" departPos="5.10" departSpeed="0.00" departDelay="1.00" arrival="189.00" arrivalLane="423487386#0_3" arrivalPos="49.28" arrivalSpeed="16.14" duration="185.00" routeLength="2171.88" waitingTime="42.00" waitingCount="2" stopTime="0.00" timeLoss="82.73" rerouteNo="15" devices="tripinfo_3 fcd_3" vType="DEFAULT_VEHTYPE" speedFactor="1.08" vaporized=""/>
    <tripinfo id="27" depart="29.00" departLane="-15458116_0" departPos="5.10" departSpeed="0.00" departDelay="0.00" arrival="191.00" arrivalLane="994901463#0_2" arrivalPos="128.52" arrivalSpeed="23.64" duration="162.00" routeLength="1639.53" waitingTime="59.00" waitingCount="2" stopTime="0.00" timeLoss="90.64" rerouteNo="9" devices="tripinfo_27 fcd_27" vType="DEFAULT_VEHTYPE" speedFactor="0.95" vaporized=""/>
    <tripinfo id="2" depart="2.00" departLane="597602686#9_0" departPos="5.10" departSpeed="0.00" departDelay="0.00" arrival="192.00" arrivalLane="968816564#0_2" arrivalPos="50.74" arrivalSpeed="28.04" duration="190.00" routeLength="1341.32" waitingTime="100.00" waitingCount="3" stopTime="0.00" timeLoss="139.87" rerouteNo="8" devices="tripinfo_2 fcd_2" vType="DEFAULT_VEHTYPE" speedFactor="1.01" vaporized=""/>
    <tripinfo id="30" depart="31.00" departLane="962816052#0_0" departPos="5.10" departSpeed="0.00" departDelay="0.00" arrival="201.00" arrivalLane="-15422879#3_0" arrivalPos="303.97" arrivalSpeed="25.79" duration="170.00" routeLength="2318.35" waitingTime="45.00" waitingCount="3" stopTime="0.00" timeLoss="93.88" rerouteNo="13" devices="tripinfo_30 fcd_30" vType="DEFAULT_VEHTYPE" speedFactor="1.18" vaporized=""/>
    <tripinfo id="46" depart="45.00" departLane="423505999#3_0" departPos="5.10" departSpeed="0.00" departDelay="0.00" arrival="206.00" arrivalLane="442372093#0_2" arrivalPos="102.91" arrivalSpeed="15.30" duration="161.00" routeLength="2738.18" waitingTime="8.00" waitingCount="2" stopTime="0.00" timeLoss="41.41" rerouteNo="13" devices="tripinfo_46 fcd_46" vType="DEFAULT_VEHTYPE" speedFactor="1.00" vaporized=""/>
    <tripinfo id="6" depart="5.00" departLane="423487450#1_0" departPos="5.10" departSpeed="0.00" departDelay="0.00" arrival="225.00" arrivalLane="968816563#0_0" arrivalPos="273.26" arrivalSpeed="28.71" duration="220.00" routeLength="2907.46" waitingTime="43.00" waitingCount="2" stopTime="0.00" timeLoss="75.69" rerouteNo="13" devices="tripinfo_6 fcd_6" vType="DEFAULT_VEHTYPE" speedFactor="1.05" vaporized=""/>
    <tripinfo id="42" depart="43.00" departLane="968816561#0_0" departPos="5.10" departSpeed="0.00" departDelay="0.00" arrival="226.00" arrivalLane="987713878_0" arrivalPos="53.81" arrivalSpeed="18.69" duration="183.00" routeLength="2523.11" waitingTime="58.00" waitingCount="2" stopTime="0.00" timeLoss="93.58" rerouteNo="11" devices="tripinfo_42 fcd_42" vType="DEFAULT_VEHTYPE" speedFactor="1.09" vaporized=""/>
    <tripinfo id="11" depart="7.00" departLane="423487359#0_0" departPos="5.10" departSpeed="0.00" departDelay="0.00" arrival="232.00" arrivalLane="-15428593#6_0" arrivalPos="302.71" arrivalSpeed="22.05" duration="225.00" routeLength="2439.38" waitingTime="52.00" waitingCount="3" stopTime="0.00" timeLoss="91.50" rerouteNo="17" devices="tripinfo_11 fcd_11" vType="DEFAULT_VEHTYPE" speedFactor="1.03" vaporized=""/>
    <tripinfo id="10" depart="6.00" departLane="1055874086#0_0" departPos="5.10" departSpeed="0.00" departDelay="0.00" arrival="235.00" arrivalLane="295292535_0" arrivalPos="47.33" arrivalSpeed="21.87" duration="229.00" routeLength="2820.32" waitingTime="69.00" waitingCount="3" stopTime="0.00" timeLoss="107.47" rerouteNo="17" devices="tripinfo_10 fcd_10" vType="DEFAULT_VEHTYPE" speedFactor="1.09" vaporized=""/>
    <tripinfo id="34" depart="34.00" departLane="978715535#2_0" departPos="5.10" departSpeed="0.00" departDelay="0.00" arrival="241.00" arrivalLane="846855221#0_0" arrivalPos="138.43" arrivalSpeed="26.51" duration="207.00" routeLength="3275.84" waitingTime="22.00" waitingCount="3" stopTime="0.00" timeLoss="76.44" rerouteNo="18" devices="tripinfo_34 fcd_34" vType="DEFAULT_VEHTYPE" speedFactor="0.99" vaporized=""/>
    <tripinfo id="36" depart="35.00" departLane="1055874086#2_0" departPos="5.10" departSpeed="0.00" departDelay="0.00" arrival="244.00" arrivalLane="423487442#1_0" arrivalPos="81.08" arrivalSpeed="14.03" duration="209.00" routeLength="2806.32" waitingTime="41.00" waitingCount="2" stopTime="0.00" timeLoss="71.58" rerouteNo="17" devices="tripinfo_36 fcd_36" vType="DEFAULT_VEHTYPE" speedFactor="0.97" vaporized=""/>
    <tripinfo id="19" depart="18.00" departLane="968816560_0" departPos="5.10" departSpeed="0.00" departDelay="0.00" arrival="249.00" arrivalLane="846813575#0_0" arrivalPos="363.78" arrivalSpeed="15.49" duration="231.00" routeLength="3633.22" waitingTime="27.00" waitingCount="2" stopTime="0.00" timeLoss="80.99" rerouteNo="14" devices="tripinfo_19 fcd_19" vType="DEFAULT_VEHTYPE" speedFactor="1.16" vaporized=""/>
    <tripinfo id="44" depart="44.00" departLane="1081590614#0_0" departPos="5.10" departSpeed="0.00" departDelay="0.00" arrival="257.00" arrivalLane="268118792#14_0" arrivalPos="637.58" arrivalSpeed="28.20" duration="213.00" routeLength="3308.65" waitingTime="23.00" waitingCount="2" stopTime="0.00" timeLoss="60.76" rerouteNo="20" devices="tripinfo_44 fcd_44" vType="DEFAULT_VEHTYPE" speedFactor="1.04" vaporized=""/>
    <tripinfo id="33" depart="34.00" departLane="-15366554#7_0" departPos="5.10" departSpeed="0.00" departDelay="0.00" arrival="262.00" arrivalLane="994901463#0_2" arrivalPos="128.52" arrivalSpeed="22.34" duration="228.00" routeLength="4201.56" waitingTime="30.00" waitingCount="2" stopTime="0.00" timeLoss="69.67" rerouteNo="6" devices="tripinfo_33 fcd_33" vType="DEFAULT_VEHTYPE" speedFactor="1.17" vaporized=""/>
    <tripinfo id="9" depart="6.00" departLane="908435482#0_0" departPos="5.10" departSpeed="0.00" departDelay="0.00" arrival="264.00" arrivalLane="423506035_0" arrivalPos="41.39" arrivalSpeed="17.29" duration="258.00" routeLength="3532.47" waitingTime="45.00" waitingCount="3" stopTime="0.00" timeLoss="84.93" rerouteNo="19" devices="tripinfo_9 fcd_9" vType="DEFAULT_VEHTYPE" speedFactor="0.86" vaporized=""/>
    <tripinfo id="43" depart="43.00" departLane="-846855219#3_0" departPos="5.10" departSpeed="0.00" departDelay="0.00" arrival="266.00" arrivalLane="1013862585#7_1" arrivalPos="275.64" arrivalSpeed="28.03" duration="223.00" routeLength="4176.83" waitingTime="10.00" waitingCount="1" stopTime="0.00" timeLoss="51.51" rerouteNo="15" devices="tripinfo_43 fcd_43" vType="DEFAULT_VEHTYPE" speedFactor="1.04" vaporized=""/>
    <tripinfo id="23" depart="24.00" departLane="962896467#0_0" departPos="5.10" departSpeed="0.00" departDelay="0.00" arrival="272.00" arrivalLane="260359943#0_0" arrivalPos="534.76" arrivalSpeed="19.76" duration="248.00" routeLength="3059.48" waitingTime="53.00" waitingCount="3" stopTime="0.00" timeLoss="94.72" rerouteNo="13" devices="tripinfo_23 fcd_23" vType="DEFAULT_VEHTYPE" speedFactor="0.89" vaporized=""/>
    <tripinfo id="49" depart="49.00" departLane="968816562#0_0" departPos="5.10" departSpeed="0.00" departDelay="0.00" arrival="307.00" arrivalLane="-746893258#1_0" arrivalPos="36.96" arrivalSpeed="14.18" duration="258.00" routeLength="3267.27" waitingTime="16.00" waitingCount="1" stopTime="0.00" timeLoss="50.92" rerouteNo="19" devices="tripinfo_49 fcd_49" vType="DEFAULT_VEHTYPE" speedFactor="0.85" vaporized=""/>
    <tripinfo id="28" depart="29.00" departLane="295292533_0" departPos="5.10" departSpeed="0.00" departDelay="0.00" arrival="309.00" arrivalLane="-15366554#7_0" arrivalPos="1651.80" arrivalSpeed="24.51" duration="280.00" routeLength="4101.50" waitingTime="65.00" waitingCount="3" stopTime="0.00" timeLoss="107.26" rerouteNo="12" devices="tripinfo_28 fcd_28" vType="DEFAULT_VEHTYPE" speedFactor="1.13" vaporized=""/>
    <tripinfo id="24" depart="25.00" departLane="423506027-AddedOffRampEdge_0" departPos="5.10" departSpeed="0.00" departDelay="0.00" arrival="317.00" arrivalLane="808587433#0_0" arrivalPos="77.22" arrivalSpeed="22.93" duration="292.00" routeLength="3196.03" waitingTime="37.00" waitingCount="4" stopTime="0.00" timeLoss="73.59" rerouteNo="24" devices="tripinfo_24 fcd_24" vType="DEFAULT_VEHTYPE" speedFactor="0.83" vaporized=""/>
    <tripinfo id="14" depart="10.00" departLane="981165357#0_0" departPos="5.10" departSpeed="0.00" departDelay="0.00" arrival="325.00" arrivalLane="268118792#0_0" arrivalPos="349.84" arrivalSpeed="26.57" duration="315.00" routeLength="2649.94" waitingTime="161.00" waitingCount="6" stopTime="0.00" timeLoss="217.68" rerouteNo="16" devices="tripinfo_14 fcd_14" vType="DEFAULT_VEHTYPE" speedFactor="0.99" vaporized=""/>
    <tripinfo id="48" depart="47.00" departLane="954632488#0_0" departPos="5.10" departSpeed="0.00" departDelay="0.00" arrival="325.00" arrivalLane="-15438674#3_0" arrivalPos="143.30" arrivalSpeed="18.72" duration="278.00" routeLength="3196.38" waitingTime="62.00" waitingCount="3" stopTime="0.00" timeLoss="114.06" rerouteNo="14" devices="tripinfo_48 fcd_48" vType="DEFAULT_VEHTYPE" speedFactor="0.88" vaporized=""/>
    <tripinfo id="21" depart="23.00" departLane="423487294_0" departPos="5.10" departSpeed="0.00" departDelay="0.00" arrival="327.00" arrivalLane="15422879#0_0" arrivalPos="303.97" arrivalSpeed="21.74" duration="304.00" routeLength="3643.51" waitingTime="62.00" waitingCount="4" stopTime="0.00" timeLoss="121.93" rerouteNo="23" devices="tripinfo_21 fcd_21" vType="DEFAULT_VEHTYPE" speedFactor="1.01" vaporized=""/>
    <tripinfo id="18" depart="17.00" departLane="15389730#22_0" departPos="5.10" departSpeed="0.00" departDelay="0.00" arrival="334.00" arrivalLane="889075099#0_0" arrivalPos="76.07" arrivalSpeed="13.90" duration="317.00" routeLength="3746.96" waitingTime="35.00" waitingCount="3" stopTime="0.00" timeLoss="90.55" rerouteNo="25" devices="tripinfo_18 fcd_18" vType="DEFAULT_VEHTYPE" speedFactor="0.94" vaporized=""/>
    <tripinfo id="45" depart="45.00" departLane="442372093#1_0" departPos="5.10" departSpeed="0.00" departDelay="0.00" arrival="341.00" arrivalLane="968816561#0_2" arrivalPos="163.35" arrivalSpeed="30.15" duration="296.00" routeLength="3527.01" waitingTime="103.00" waitingCount="4" stopTime="0.00" timeLoss="160.59" rerouteNo="18" devices="tripinfo_45 fcd_45" vType="DEFAULT_VEHTYPE" speedFactor="1.09" vaporized=""/>
    <tripinfo id="13" depart="7.00" departLane="981165359#0_0" departPos="5.10" departSpeed="0.00" departDelay="0.00" arrival="346.00" arrivalLane="232089532_0" arrivalPos="57.78" arrivalSpeed="21.35" duration="339.00" routeLength="4393.99" waitingTime="112.00" waitingCount="4" stopTime="0.00" timeLoss="182.73" rerouteNo="15" devices="tripinfo_13 fcd_13" vType="DEFAULT_VEHTYPE" speedFactor="1.12" vaporized=""/>
    <tripinfo id="39" depart="40.00" departLane="597528981#0_0" departPos="5.10" departSpeed="0.00" departDelay="0.00" arrival="355.00" arrivalLane="15302679_0" arrivalPos="35.58" arrivalSpeed="14.78" duration="315.00" routeLength="2888.53" waitingTime="109.00" waitingCount="3" stopTime="0.00" timeLoss="145.30" rerouteNo="18" devices="tripinfo_39 fcd_39" vType="DEFAULT_VEHTYPE" speedFactor="0.90" vaporized=""/>
    <tripinfo id="1" depart="2.00" departLane="268118792#0_0" departPos="5.10" departSpeed="0.00" departDelay="0.00" arrival="362.00" arrivalLane="423487436#0-AddedOffRampEdge_0" arrivalPos="96.00" arrivalSpeed="13.46" duration="360.00" routeLength="3251.58" waitingTime="130.00" waitingCount="5" stopTime="0.00" timeLoss="171.74" rerouteNo="21" devices="tripinfo_1 fcd_1" vType="DEFAULT_VEHTYPE" speedFactor="0.94" vaporized=""/>
    <tripinfo id="37" depart="35.00" departLane="981165357#0_0" departPos="5.10" departSpeed="0.00" departDelay="0.00" arrival="386.00" arrivalLane="962896467#3_1" arrivalPos="59.51" arrivalSpeed="26.70" duration="351.00" routeLength="4615.21" waitingTime="100.00" waitingCount="6" stopTime="0.00" timeLoss="172.28" rerouteNo="31" devices="tripinfo_37 fcd_37" vType="DEFAULT_VEHTYPE" speedFactor="1.18" vaporized=""/>
    <tripinfo id="5" depart="4.00" departLane="962896467#3_0" departPos="5.10" departSpeed="0.00" departDelay="0.00" arrival="396.00" arrivalLane="981165359#0_0" arrivalPos="450.47" arrivalSpeed="22.94" duration="392.00" routeLength="4572.25" waitingTime="97.00" waitingCount="4" stopTime="0.00" timeLoss="146.16" rerouteNo="26" devices="tripinfo_5 fcd_5" vType="DEFAULT_VEHTYPE" speedFactor="0.83" vaporized=""/>
    <tripinfo id="29" depart="31.00" departLane="854649126_0" departPos="5.10" departSpeed="0.00" departDelay="0.00" arrival="436.00" arrivalLane="423487419#2-AddedOffRampEdge_3" arrivalPos="96.00" arrivalSpeed="14.14" duration="405.00" routeLength="4968.61" waitingTime="81.00" waitingCount="4" stopTime="0.00" timeLoss="125.88" rerouteNo="26" devices="tripinfo_29 fcd_29" vType="DEFAULT_VEHTYPE" speedFactor="0.93" vaporized=""/>
    <tripinfo id="40" depart="41.00" departLane="15302679_0" departPos="5.10" departSpeed="0.00" departDelay="0.00" arrival="493.00" arrivalLane="1081590613#0_2" arrivalPos="129.35" arrivalSpeed="22.83" duration="452.00" routeLength="1702.52" waitingTime="337.00" waitingCount="3" stopTime="0.00" timeLoss="365.87" rerouteNo="13" devices="tripinfo_40 fcd_40" vType="DEFAULT_VEHTYPE" speedFactor="1.03" vaporized=""/>
    <tripinfo id="41" depart="43.00" departLane="423506029#0_0" departPos="5.10" departSpeed="0.00" departDelay="0.00" arrival="508.00" arrivalLane="1081590609_1" arrivalPos="20.65" arrivalSpeed="19.97" duration="465.00" routeLength="2310.09" waitingTime="312.00" waitingCount="2" stopTime="0.00" timeLoss="338.81" rerouteNo="20" devices="tripinfo_41 fcd_41" vType="DEFAULT_VEHTYPE" speedFactor="0.96" vaporized=""/>
    <tripinfo id="16" depart="13.00" departLane="-755435065#2_0" departPos="5.10" departSpeed="0.00" departDelay="0.00" arrival="583.00" arrivalLane="908436863#1_0" arrivalPos="432.90" arrivalSpeed="13.59" duration="570.00" routeLength="2497.77" waitingTime="381.00" waitingCount="3" stopTime="0.00" timeLoss="413.60" rerouteNo="16" devices="tripinfo_16 fcd_16" vType="DEFAULT_VEHTYPE" speedFactor="0.88" vaporized=""/>
</tripinfos>
