<?xml version="1.0" encoding="UTF-8"?>

<!-- generated on 2023-07-13 15:39:32 by Eclipse SUMO GUI Version v1_17_0+0908-fc813c74af8
<configuration xmlns:xsi="http://www.w3.org/2001/XMLSchema-instance" xsi:noNamespaceSchemaLocation="http://sumo.dlr.de/xsd/sumoConfiguration.xsd">

    <input>
        <net-file value="./configurations/osm.net.xml"/>
        <route-files value="./configurations/./Rounds/test1/static_trip.rou.xml"/>
    </input>

    <output>
        <netstate-dump value="./configurations/test_dump.xml"/>
        <fcd-output value="./configurations/testTrace.xml"/>
        <summary-output value="./configurations/summary.xml"/>
        <tripinfo-output value="./configurations/trips.trips.xml"/>
        <statistic-output value="./configurations/stats_output.xml"/>
    </output>

    <time>
        <begin value="0"/>
        <end value="200000"/>
    </time>

    <traci_server>
        <remote-port value="63489"/>
    </traci_server>

    <gui_only>
        <quit-on-end value="true"/>
    </gui_only>

</configuration>
-->

<tripinfos xmlns:xsi="http://www.w3.org/2001/XMLSchema-instance" xsi:noNamespaceSchemaLocation="http://sumo.dlr.de/xsd/tripinfo_file.xsd">
    <tripinfo id="2" depart="8.00" departLane="1013862586#0_0" departPos="5.10" departSpeed="0.00" departDelay="0.00" arrival="130.00" arrivalLane="423487416#0-AddedOffRampEdge_4" arrivalPos="96.00" arrivalSpeed="15.14" duration="122.00" routeLength="1272.14" waitingTime="21.00" waitingCount="3" stopTime="0.00" timeLoss="52.99" rerouteNo="9" devices="tripinfo_2 fcd_2" vType="DEFAULT_VEHTYPE" speedFactor="1.01" vaporized=""/>
    <tripinfo id="12" depart="35.00" departLane="423487259#0_0" departPos="5.10" departSpeed="0.00" departDelay="0.00" arrival="163.00" arrivalLane="423487304#0_0" arrivalPos="30.98" arrivalSpeed="15.10" duration="128.00" routeLength="1575.72" waitingTime="24.00" waitingCount="2" stopTime="0.00" timeLoss="43.15" rerouteNo="8" devices="tripinfo_12 fcd_12" vType="DEFAULT_VEHTYPE" speedFactor="1.05" vaporized=""/>
    <tripinfo id="55" depart="119.00" departLane="1081590611_0" departPos="5.10" departSpeed="0.00" departDelay="0.00" arrival="167.00" arrivalLane="846857038#0_0" arrivalPos="46.07" arrivalSpeed="18.60" duration="48.00" routeLength="730.72" waitingTime="1.00" waitingCount="1" stopTime="0.00" timeLoss="17.17" rerouteNo="9" devices="tripinfo_55 fcd_55" vType="DEFAULT_VEHTYPE" speedFactor="1.00" vaporized=""/>
    <tripinfo id="9" depart="25.00" departLane="423487421#0_0" departPos="5.10" departSpeed="0.00" departDelay="0.00" arrival="169.00" arrivalLane="442372093#0_2" arrivalPos="102.91" arrivalSpeed="12.16" duration="144.00" routeLength="1242.68" waitingTime="31.00" waitingCount="2" stopTime="0.00" timeLoss="49.55" rerouteNo="11" devices="tripinfo_9 fcd_9" vType="DEFAULT_VEHTYPE" speedFactor="0.86" vaporized=""/>
    <tripinfo id="33" depart="85.00" departLane="-968816562#41_0" departPos="5.10" departSpeed="0.00" departDelay="0.00" arrival="169.00" arrivalLane="287525280#15_0" arrivalPos="970.11" arrivalSpeed="31.82" duration="84.00" routeLength="1824.77" waitingTime="0.00" waitingCount="0" stopTime="0.00" timeLoss="19.29" rerouteNo="2" devices="tripinfo_33 fcd_33" vType="DEFAULT_VEHTYPE" speedFactor="1.17" vaporized=""/>
    <tripinfo id="20" depart="53.00" departLane="1128434403#0_0" departPos="5.10" departSpeed="0.00" departDelay="0.00" arrival="174.00" arrivalLane="290026883_0" arrivalPos="16.36" arrivalSpeed="17.23" duration="121.00" routeLength="1149.75" waitingTime="28.00" waitingCount="2" stopTime="0.00" timeLoss="62.13" rerouteNo="6" devices="tripinfo_20 fcd_20" vType="DEFAULT_VEHTYPE" speedFactor="1.02" vaporized=""/>
    <tripinfo id="10" depart="27.00" departLane="423487438#0_0" departPos="5.10" departSpeed="0.00" departDelay="0.00" arrival="197.00" arrivalLane="423487449#0-AddedOffRampEdge_0" arrivalPos="95.57" arrivalSpeed="16.96" duration="170.00" routeLength="1449.14" waitingTime="63.00" waitingCount="2" stopTime="0.00" timeLoss="84.67" rerouteNo="13" devices="tripinfo_10 fcd_10" vType="DEFAULT_VEHTYPE" speedFactor="1.09" vaporized=""/>
    <tripinfo id="7" depart="20.00" departLane="15440930#1_0" departPos="5.10" departSpeed="0.00" departDelay="0.00" arrival="201.00" arrivalLane="-1128434407#1_1" arrivalPos="45.64" arrivalSpeed="17.58" duration="181.00" routeLength="1571.49" waitingTime="38.00" waitingCount="2" stopTime="0.00" timeLoss="68.38" rerouteNo="14" devices="tripinfo_7 fcd_7" vType="DEFAULT_VEHTYPE" speedFactor="0.89" vaporized=""/>
    <tripinfo id="59" depart="131.00" departLane="691318132#9_0" departPos="5.10" departSpeed="0.00" departDelay="0.00" arrival="203.00" arrivalLane="423487419#2-AddedOffRampEdge_3" arrivalPos="96.00" arrivalSpeed="14.62" duration="72.00" routeLength="986.11" waitingTime="0.00" waitingCount="0" stopTime="0.00" timeLoss="21.03" rerouteNo="4" devices="tripinfo_59 fcd_59" vType="DEFAULT_VEHTYPE" speedFactor="0.97" vaporized=""/>
    <tripinfo id="0" depart="5.00" departLane="423487294_0" departPos="5.10" departSpeed="0.00" departDelay="0.00" arrival="204.00" arrivalLane="423487461_0" arrivalPos="41.97" arrivalSpeed="16.01" duration="199.00" routeLength="2237.05" waitingTime="43.00" waitingCount="4" stopTime="0.00" timeLoss="82.09" rerouteNo="22" devices="tripinfo_0 fcd_0" vType="DEFAULT_VEHTYPE" speedFactor="1.06" vaporized=""/>
    <tripinfo id="25" depart="64.00" departLane="260359943#0_0" departPos="5.10" departSpeed="0.00" departDelay="0.00" arrival="204.00" arrivalLane="-755435065#2_0" arrivalPos="61.83" arrivalSpeed="15.26" duration="140.00" routeLength="2163.72" waitingTime="0.00" waitingCount="0" stopTime="0.00" timeLoss="26.47" rerouteNo="5" devices="tripinfo_25 fcd_25" vType="DEFAULT_VEHTYPE" speedFactor="0.87" vaporized=""/>
    <tripinfo id="22" depart="56.00" departLane="962896467#3_0" departPos="5.10" departSpeed="0.00" departDelay="0.00" arrival="217.00" arrivalLane="423487450#0_3" arrivalPos="79.81" arrivalSpeed="14.88" duration="161.00" routeLength="1578.35" waitingTime="42.00" waitingCount="4" stopTime="0.00" timeLoss="82.94" rerouteNo="11" devices="tripinfo_22 fcd_22" vType="DEFAULT_VEHTYPE" speedFactor="0.97" vaporized=""/>
    <tripinfo id="50" depart="111.00" departLane="-15440930#4_0" departPos="5.10" departSpeed="0.00" departDelay="0.00" arrival="221.00" arrivalLane="755435068_0" arrivalPos="28.31" arrivalSpeed="18.43" duration="110.00" routeLength="1018.53" waitingTime="9.00" waitingCount="2" stopTime="0.00" timeLoss="35.53" rerouteNo="12" devices="tripinfo_50 fcd_50" vType="DEFAULT_VEHTYPE" speedFactor="0.85" vaporized=""/>
    <tripinfo id="27" depart="68.00" departLane="310973089#0_0" departPos="5.10" departSpeed="0.00" departDelay="0.00" arrival="222.00" arrivalLane="846855219#0_0" arrivalPos="1323.88" arrivalSpeed="25.65" duration="154.00" routeLength="2660.34" waitingTime="13.00" waitingCount="2" stopTime="0.00" timeLoss="42.74" rerouteNo="6" devices="tripinfo_27 fcd_27" vType="DEFAULT_VEHTYPE" speedFactor="0.95" vaporized=""/>
    <tripinfo id="35" depart="85.00" departLane="15428593#8_0" departPos="5.10" departSpeed="0.00" departDelay="0.00" arrival="222.00" arrivalLane="423487462_0" arrivalPos="41.18" arrivalSpeed="15.30" duration="137.00" routeLength="2451.56" waitingTime="0.00" waitingCount="0" stopTime="0.00" timeLoss="26.06" rerouteNo="6" devices="tripinfo_35 fcd_35" vType="DEFAULT_VEHTYPE" speedFactor="1.02" vaporized=""/>
    <tripinfo id="49" depart="109.00" departLane="1031308683#0_0" departPos="5.10" departSpeed="0.00" departDelay="0.00" arrival="228.00" arrivalLane="15422879#0_0" arrivalPos="303.97" arrivalSpeed="18.20" duration="119.00" routeLength="1772.76" waitingTime="1.00" waitingCount="1" stopTime="0.00" timeLoss="29.73" rerouteNo="8" devices="tripinfo_49 fcd_49" vType="DEFAULT_VEHTYPE" speedFactor="0.85" vaporized=""/>
    <tripinfo id="44" depart="101.00" departLane="423487450#3_0" departPos="5.10" departSpeed="0.00" departDelay="0.00" arrival="231.00" arrivalLane="968816562#28_0" arrivalPos="533.77" arrivalSpeed="22.05" duration="130.00" routeLength="1967.04" waitingTime="2.00" waitingCount="1" stopTime="0.00" timeLoss="27.13" rerouteNo="11" devices="tripinfo_44 fcd_44" vType="DEFAULT_VEHTYPE" speedFactor="1.04" vaporized=""/>
    <tripinfo id="18" depart="47.00" departLane="423487434#0_0" departPos="0.20" departSpeed="0.00" departDelay="0.00" arrival="232.00" arrivalLane="1081590610#0_1" arrivalPos="76.42" arrivalSpeed="20.26" duration="185.00" routeLength="1801.70" waitingTime="68.00" waitingCount="2" stopTime="0.00" timeLoss="91.22" rerouteNo="15" devices="tripinfo_18 fcd_18" vType="DEFAULT_VEHTYPE" speedFactor="0.94" vaporized=""/>
    <tripinfo id="63" depart="141.00" departLane="15302679_0" departPos="5.10" departSpeed="0.00" departDelay="0.00" arrival="234.00" arrivalLane="423506031#0_3" arrivalPos="32.72" arrivalSpeed="12.65" duration="93.00" routeLength="761.97" waitingTime="22.00" waitingCount="1" stopTime="0.00" timeLoss="41.28" rerouteNo="9" devices="tripinfo_63 fcd_63" vType="DEFAULT_VEHTYPE" speedFactor="0.99" vaporized=""/>
    <tripinfo id="6" depart="19.00" departLane="423487392#0_0" departPos="5.10" departSpeed="0.00" departDelay="0.00" arrival="236.00" arrivalLane="423487304#0_1" arrivalPos="30.98" arrivalSpeed="15.37" duration="217.00" routeLength="2228.67" waitingTime="70.00" waitingCount="4" stopTime="0.00" timeLoss="98.74" rerouteNo="16" devices="tripinfo_6 fcd_6" vType="DEFAULT_VEHTYPE" speedFactor="1.05" vaporized=""/>
    <tripinfo id="15" depart="41.00" departLane="988583021#3_0" departPos="5.10" departSpeed="0.00" departDelay="0.00" arrival="236.00" arrivalLane="104717225#0_0" arrivalPos="110.33" arrivalSpeed="19.54" duration="195.00" routeLength="2020.53" waitingTime="55.00" waitingCount="3" stopTime="0.00" timeLoss="84.38" rerouteNo="16" devices="tripinfo_15 fcd_15" vType="DEFAULT_VEHTYPE" speedFactor="0.93" vaporized=""/>
    <tripinfo id="43" depart="100.00" departLane="601725845#21_0" departPos="5.10" departSpeed="0.00" departDelay="0.00" arrival="237.00" arrivalLane="-1128434406#2_1" arrivalPos="49.27" arrivalSpeed="28.68" duration="137.00" routeLength="1773.38" waitingTime="37.00" waitingCount="2" stopTime="0.00" timeLoss="60.23" rerouteNo="8" devices="tripinfo_43 fcd_43" vType="DEFAULT_VEHTYPE" speedFactor="1.04" vaporized=""/>
    <tripinfo id="30" depart="80.00" departLane="846857039#0_0" departPos="5.10" departSpeed="0.00" departDelay="0.00" arrival="240.00" arrivalLane="-1128434406#2_1" arrivalPos="49.27" arrivalSpeed="31.95" duration="160.00" routeLength="2403.28" waitingTime="14.00" waitingCount="1" stopTime="0.00" timeLoss="57.95" rerouteNo="15" devices="tripinfo_30 fcd_30" vType="DEFAULT_VEHTYPE" speedFactor="1.18" vaporized=""/>
    <tripinfo id="29" depart="73.00" departLane="442372081#5_0" departPos="5.10" departSpeed="0.00" departDelay="0.00" arrival="244.00" arrivalLane="987713878_0" arrivalPos="53.81" arrivalSpeed="20.36" duration="171.00" routeLength="1898.80" waitingTime="51.00" waitingCount="2" stopTime="0.00" timeLoss="76.55" rerouteNo="14" devices="tripinfo_29 fcd_29" vType="DEFAULT_VEHTYPE" speedFactor="0.93" vaporized=""/>
    <tripinfo id="8" depart="22.00" departLane="597528970#0_0" departPos="5.10" departSpeed="0.00" departDelay="0.00" arrival="247.00" arrivalLane="423487463_0" arrivalPos="53.06" arrivalSpeed="14.89" duration="225.00" routeLength="2303.23" waitingTime="54.00" waitingCount="3" stopTime="0.00" timeLoss="86.16" rerouteNo="18" devices="tripinfo_8 fcd_8" vType="DEFAULT_VEHTYPE" speedFactor="0.94" vaporized=""/>
    <tripinfo id="4" depart="11.00" departLane="15440930#1_0" departPos="5.10" departSpeed="0.00" departDelay="0.00" arrival="253.00" arrivalLane="-683889359#6_1" arrivalPos="444.52" arrivalSpeed="21.90" duration="242.00" routeLength="2271.72" waitingTime="83.00" waitingCount="4" stopTime="0.00" timeLoss="121.91" rerouteNo="11" devices="tripinfo_4 fcd_4" vType="DEFAULT_VEHTYPE" speedFactor="1.03" vaporized=""/>
    <tripinfo id="28" depart="73.00" departLane="-268118792#13_0" departPos="5.10" departSpeed="0.00" departDelay="0.00" arrival="255.00" arrivalLane="442372081#5_3" arrivalPos="230.45" arrivalSpeed="24.13" duration="182.00" routeLength="1705.94" waitingTime="75.00" waitingCount="3" stopTime="0.00" timeLoss="109.89" rerouteNo="9" devices="tripinfo_28 fcd_28" vType="DEFAULT_VEHTYPE" speedFactor="1.13" vaporized=""/>
    <tripinfo id="42" depart="99.00" departLane="962896467#4_0" departPos="5.10" departSpeed="0.00" departDelay="0.00" arrival="258.00" arrivalLane="755435068_0" arrivalPos="28.31" arrivalSpeed="16.09" duration="159.00" routeLength="1354.64" waitingTime="57.00" waitingCount="4" stopTime="0.00" timeLoss="102.44" rerouteNo="10" devices="tripinfo_42 fcd_42" vType="DEFAULT_VEHTYPE" speedFactor="1.09" vaporized=""/>
    <tripinfo id="31" depart="80.00" departLane="597602686#16_0" departPos="5.10" departSpeed="0.00" departDelay="0.00" arrival="260.00" arrivalLane="423487452#0_3" arrivalPos="37.92" arrivalSpeed="13.45" duration="180.00" routeLength="2554.94" waitingTime="23.00" waitingCount="1" stopTime="0.00" timeLoss="68.86" rerouteNo="9" devices="tripinfo_31 fcd_31" vType="DEFAULT_VEHTYPE" speedFactor="1.15" vaporized=""/>
    <tripinfo id="88" depart="219.00" departLane="423487439#0_0" departPos="5.10" departSpeed="0.00" departDelay="0.00" arrival="264.00" arrivalLane="-755435068_0" arrivalPos="28.31" arrivalSpeed="18.86" duration="45.00" routeLength="498.46" waitingTime="8.00" waitingCount="1" stopTime="0.00" timeLoss="20.31" rerouteNo="4" devices="tripinfo_88 fcd_88" vType="DEFAULT_VEHTYPE" speedFactor="1.01" vaporized=""/>
    <tripinfo id="13" depart="36.00" departLane="290026884_0" departPos="5.10" departSpeed="0.00" departDelay="0.00" arrival="265.00" arrivalLane="423487296_2" arrivalPos="28.71" arrivalSpeed="16.38" duration="229.00" routeLength="2729.70" waitingTime="56.00" waitingCount="2" stopTime="0.00" timeLoss="89.33" rerouteNo="15" devices="tripinfo_13 fcd_13" vType="DEFAULT_VEHTYPE" speedFactor="1.12" vaporized=""/>
    <tripinfo id="37" depart="87.00" departLane="423487359#0_0" departPos="5.10" departSpeed="0.00" departDelay="0.00" arrival="271.00" arrivalLane="423487442#0_0" arrivalPos="48.71" arrivalSpeed="17.57" duration="184.00" routeLength="1752.83" waitingTime="56.00" waitingCount="3" stopTime="0.00" timeLoss="87.70" rerouteNo="17" devices="tripinfo_37 fcd_37" vType="DEFAULT_VEHTYPE" speedFactor="1.18" vaporized=""/>
    <tripinfo id="19" depart="50.00" departLane="442372081#11_0" departPos="5.10" departSpeed="0.00" departDelay="0.00" arrival="273.00" arrivalLane="808587438#0_0" arrivalPos="766.27" arrivalSpeed="17.06" duration="223.00" routeLength="2820.59" waitingTime="53.00" waitingCount="3" stopTime="0.00" timeLoss="87.31" rerouteNo="16" devices="tripinfo_19 fcd_19" vType="DEFAULT_VEHTYPE" speedFactor="1.16" vaporized=""/>
    <tripinfo id="1" depart="5.00" departLane="423487450#3_0" departPos="5.10" departSpeed="0.00" departDelay="0.00" arrival="275.00" arrivalLane="597602687#0_0" arrivalPos="88.21" arrivalSpeed="20.70" duration="270.00" routeLength="2729.96" waitingTime="85.00" waitingCount="5" stopTime="0.00" timeLoss="131.16" rerouteNo="14" devices="tripinfo_1 fcd_1" vType="DEFAULT_VEHTYPE" speedFactor="0.94" vaporized=""/>
    <tripinfo id="47" depart="105.00" departLane="442372090-AddedOffRampEdge_0" departPos="5.10" departSpeed="0.00" departDelay="0.00" arrival="275.00" arrivalLane="15422879#0_0" arrivalPos="303.97" arrivalSpeed="19.78" duration="170.00" routeLength="2136.38" waitingTime="22.00" waitingCount="2" stopTime="0.00" timeLoss="50.83" rerouteNo="9" devices="tripinfo_47 fcd_47" vType="DEFAULT_VEHTYPE" speedFactor="0.90" vaporized=""/>
    <tripinfo id="11" depart="30.00" departLane="423487307#0_0" departPos="5.10" departSpeed="0.00" departDelay="0.00" arrival="284.00" arrivalLane="908436860#0_2" arrivalPos="191.04" arrivalSpeed="15.77" duration="254.00" routeLength="3493.54" waitingTime="44.00" waitingCount="3" stopTime="0.00" timeLoss="90.51" rerouteNo="16" devices="tripinfo_11 fcd_11" vType="DEFAULT_VEHTYPE" speedFactor="1.03" vaporized=""/>
    <tripinfo id="38" depart="88.00" departLane="746893258#0_0" departPos="5.10" departSpeed="0.00" departDelay="0.00" arrival="284.00" arrivalLane="423506029#0_2" arrivalPos="59.34" arrivalSpeed="16.25" duration="196.00" routeLength="2056.72" waitingTime="44.00" waitingCount="3" stopTime="0.00" timeLoss="77.00" rerouteNo="22" devices="tripinfo_38 fcd_38" vType="DEFAULT_VEHTYPE" speedFactor="1.10" vaporized=""/>
    <tripinfo id="71" depart="182.00" departLane="981165359#0_0" departPos="5.10" departSpeed="0.00" departDelay="0.00" arrival="286.00" arrivalLane="423487448#1_2" arrivalPos="91.62" arrivalSpeed="13.98" duration="104.00" routeLength="1968.87" waitingTime="0.00" waitingCount="0" stopTime="0.00" timeLoss="16.23" rerouteNo="7" devices="tripinfo_71 fcd_71" vType="DEFAULT_VEHTYPE" speedFactor="0.97" vaporized=""/>
    <tripinfo id="75" depart="191.00" departLane="981165357#0_0" departPos="5.10" departSpeed="0.00" departDelay="0.00" arrival="286.00" arrivalLane="968816563#0_1" arrivalPos="273.26" arrivalSpeed="26.41" duration="95.00" routeLength="807.16" waitingTime="38.00" waitingCount="2" stopTime="0.00" timeLoss="65.41" rerouteNo="6" devices="tripinfo_75 fcd_75" vType="DEFAULT_VEHTYPE" speedFactor="0.98" vaporized=""/>
    <tripinfo id="91" depart="223.00" departLane="104727143#0_0" departPos="5.10" departSpeed="0.00" departDelay="0.00" arrival="291.00" arrivalLane="962816052#1_1" arrivalPos="70.17" arrivalSpeed="18.18" duration="68.00" routeLength="794.51" waitingTime="10.00" waitingCount="1" stopTime="0.00" timeLoss="33.40" rerouteNo="2" devices="tripinfo_91 fcd_91" vType="DEFAULT_VEHTYPE" speedFactor="0.89" vaporized=""/>
    <tripinfo id="67" depart="157.00" departLane="104727143#0_0" departPos="5.10" departSpeed="0.00" departDelay="0.00" arrival="292.00" arrivalLane="423505992#0_0" arrivalPos="36.46" arrivalSpeed="13.95" duration="135.00" routeLength="1660.50" waitingTime="19.00" waitingCount="1" stopTime="0.00" timeLoss="35.17" rerouteNo="8" devices="tripinfo_67 fcd_67" vType="DEFAULT_VEHTYPE" speedFactor="0.91" vaporized=""/>
    <tripinfo id="41" depart="92.00" departLane="1055874086#2_0" departPos="5.10" departSpeed="0.00" departDelay="0.00" arrival="293.00" arrivalLane="1128434401_0" arrivalPos="18.81" arrivalSpeed="26.48" duration="201.00" routeLength="2769.19" waitingTime="69.00" waitingCount="2" stopTime="0.00" timeLoss="95.09" rerouteNo="12" devices="tripinfo_41 fcd_41" vType="DEFAULT_VEHTYPE" speedFactor="0.96" vaporized=""/>
    <tripinfo id="23" depart="60.00" departLane="232045940#0_0" departPos="5.10" departSpeed="0.00" departDelay="0.00" arrival="294.00" arrivalLane="846857039#0_2" arrivalPos="43.36" arrivalSpeed="18.75" duration="234.00" routeLength="2985.99" waitingTime="31.00" waitingCount="2" stopTime="0.00" timeLoss="70.88" rerouteNo="17" devices="tripinfo_23 fcd_23" vType="DEFAULT_VEHTYPE" speedFactor="0.89" vaporized=""/>
    <tripinfo id="26" depart="65.00" departLane="1042572824#0_0" departPos="5.10" departSpeed="0.00" departDelay="0.00" arrival="297.00" arrivalLane="15366554#9_0" arrivalPos="1516.79" arrivalSpeed="19.55" duration="232.00" routeLength="2287.28" waitingTime="97.00" waitingCount="3" stopTime="0.00" timeLoss="124.51" rerouteNo="7" devices="tripinfo_26 fcd_26" vType="DEFAULT_VEHTYPE" speedFactor="0.92" vaporized=""/>
    <tripinfo id="93" depart="229.00" departLane="962816052#0_0" departPos="5.10" departSpeed="0.00" departDelay="0.00" arrival="299.00" arrivalLane="312826086_0" arrivalPos="15.10" arrivalSpeed="11.67" duration="70.00" routeLength="289.07" waitingTime="42.00" waitingCount="1" stopTime="0.00" timeLoss="56.59" rerouteNo="4" devices="tripinfo_93 fcd_93" vType="DEFAULT_VEHTYPE" speedFactor="0.92" vaporized=""/>
    <tripinfo id="48" depart="106.00" departLane="423505994#0_0" departPos="5.10" departSpeed="0.00" departDelay="0.00" arrival="301.00" arrivalLane="423487412#0_2" arrivalPos="35.90" arrivalSpeed="12.90" duration="195.00" routeLength="1838.80" waitingTime="52.00" waitingCount="2" stopTime="0.00" timeLoss="83.74" rerouteNo="16" devices="tripinfo_48 fcd_48" vType="DEFAULT_VEHTYPE" speedFactor="0.88" vaporized=""/>
    <tripinfo id="85" depart="219.00" departLane="423506031#0_0" departPos="5.10" departSpeed="0.00" departDelay="3.00" arrival="303.00" arrivalLane="1013862586#7_0" arrivalPos="414.11" arrivalSpeed="26.09" duration="84.00" routeLength="1121.04" waitingTime="1.00" waitingCount="1" stopTime="0.00" timeLoss="28.78" rerouteNo="6" devices="tripinfo_85 fcd_85" vType="DEFAULT_VEHTYPE" speedFactor="0.98" vaporized=""/>
    <tripinfo id="94" depart="230.00" departLane="-15440930#4_0" departPos="5.10" departSpeed="0.00" departDelay="0.00" arrival="305.00" arrivalLane="987713878_0" arrivalPos="53.81" arrivalSpeed="18.59" duration="75.00" routeLength="430.14" waitingTime="36.00" waitingCount="1" stopTime="0.00" timeLoss="51.97" rerouteNo="4" devices="tripinfo_94 fcd_94" vType="DEFAULT_VEHTYPE" speedFactor="1.09" vaporized=""/>
    <tripinfo id="76" depart="200.00" departLane="-755435065#2_0" departPos="5.10" departSpeed="0.00" departDelay="4.00" arrival="307.00" arrivalLane="423487307#0-AddedOffRampEdge_3" arrivalPos="95.99" arrivalSpeed="28.55" duration="107.00" routeLength="2055.94" waitingTime="0.00" waitingCount="0" stopTime="0.00" timeLoss="20.46" rerouteNo="6" devices="tripinfo_76 fcd_76" vType="DEFAULT_VEHTYPE" speedFactor="1.03" vaporized=""/>
    <tripinfo id="68" depart="158.00" departLane="746893257#0_0" departPos="5.10" departSpeed="0.00" departDelay="0.00" arrival="308.00" arrivalLane="268118792#11_1" arrivalPos="82.45" arrivalSpeed="17.39" duration="150.00" routeLength="1861.93" waitingTime="32.00" waitingCount="2" stopTime="0.00" timeLoss="65.23" rerouteNo="11" devices="tripinfo_68 fcd_68" vType="DEFAULT_VEHTYPE" speedFactor="1.04" vaporized=""/>
    <tripinfo id="32" depart="82.00" departLane="683976549#0_0" departPos="5.10" departSpeed="0.00" departDelay="0.00" arrival="309.00" arrivalLane="1117149005#0_0" arrivalPos="468.21" arrivalSpeed="26.95" duration="227.00" routeLength="2880.64" waitingTime="38.00" waitingCount="2" stopTime="0.00" timeLoss="66.91" rerouteNo="10" devices="tripinfo_32 fcd_32" vType="DEFAULT_VEHTYPE" speedFactor="1.01" vaporized=""/>
    <tripinfo id="40" depart="90.00" departLane="-968816562#41_0" departPos="5.10" departSpeed="0.00" departDelay="0.00" arrival="309.00" arrivalLane="478554548#0_1" arrivalPos="37.77" arrivalSpeed="13.59" duration="219.00" routeLength="2423.62" waitingTime="45.00" waitingCount="3" stopTime="0.00" timeLoss="92.16" rerouteNo="17" devices="tripinfo_40 fcd_40" vType="DEFAULT_VEHTYPE" speedFactor="1.03" vaporized=""/>
    <tripinfo id="14" depart="36.00" departLane="691318132#9_0" departPos="5.10" departSpeed="0.00" departDelay="0.00" arrival="310.00" arrivalLane="808587437#0_1" arrivalPos="56.23" arrivalSpeed="6.15" duration="274.00" routeLength="3045.74" waitingTime="62.00" waitingCount="4" stopTime="0.00" timeLoss="113.25" rerouteNo="17" devices="tripinfo_14 fcd_14" vType="DEFAULT_VEHTYPE" speedFactor="0.99" vaporized=""/>
    <tripinfo id="115" depart="277.00" departLane="846857039#0_0" departPos="5.10" departSpeed="0.00" departDelay="0.00" arrival="311.00" arrivalLane="442372082_0" arrivalPos="75.67" arrivalSpeed="20.19" duration="34.00" routeLength="402.00" waitingTime="0.00" waitingCount="0" stopTime="0.00" timeLoss="7.58" rerouteNo="4" devices="tripinfo_115 fcd_115" vType="DEFAULT_VEHTYPE" speedFactor="0.92" vaporized=""/>
    <tripinfo id="84" depart="213.00" departLane="423487259#0_0" departPos="5.10" departSpeed="0.00" departDelay="0.00" arrival="315.00" arrivalLane="988583021#0_3" arrivalPos="72.91" arrivalSpeed="16.70" duration="102.00" routeLength="1384.59" waitingTime="33.00" waitingCount="2" stopTime="0.00" timeLoss="53.90" rerouteNo="8" devices="tripinfo_84 fcd_84" vType="DEFAULT_VEHTYPE" speedFactor="1.15" vaporized=""/>
    <tripinfo id="21" depart="54.00" departLane="423487419#2-AddedOffRampEdge_0" departPos="5.10" departSpeed="0.00" departDelay="0.00" arrival="319.00" arrivalLane="-683976549#1_1" arrivalPos="181.62" arrivalSpeed="22.11" duration="265.00" routeLength="2607.66" waitingTime="72.00" waitingCount="4" stopTime="0.00" timeLoss="119.28" rerouteNo="22" devices="tripinfo_21 fcd_21" vType="DEFAULT_VEHTYPE" speedFactor="1.01" vaporized=""/>
    <tripinfo id="57" depart="125.00" departLane="808587438#0_0" departPos="5.10" departSpeed="0.00" departDelay="0.00" arrival="323.00" arrivalLane="423487434#0-AddedOffRampEdge_0" arrivalPos="94.36" arrivalSpeed="16.85" duration="198.00" routeLength="2245.31" waitingTime="64.00" waitingCount="2" stopTime="0.00" timeLoss="89.43" rerouteNo="10" devices="tripinfo_57 fcd_57" vType="DEFAULT_VEHTYPE" speedFactor="1.14" vaporized=""/>
    <tripinfo id="36" depart="87.00" departLane="746893260_0" departPos="5.10" departSpeed="0.00" departDelay="0.00" arrival="326.00" arrivalLane="808587436#0_0" arrivalPos="775.99" arrivalSpeed="14.89" duration="239.00" routeLength="3054.55" waitingTime="48.00" waitingCount="3" stopTime="0.00" timeLoss="83.16" rerouteNo="9" devices="tripinfo_36 fcd_36" vType="DEFAULT_VEHTYPE" speedFactor="0.97" vaporized=""/>
    <tripinfo id="100" depart="251.00" departLane="597528979#0_0" departPos="5.10" departSpeed="0.00" departDelay="0.00" arrival="328.00" arrivalLane="-746893261#1_0" arrivalPos="285.85" arrivalSpeed="23.08" duration="77.00" routeLength="1208.76" waitingTime="3.00" waitingCount="1" stopTime="0.00" timeLoss="23.93" rerouteNo="3" devices="tripinfo_100 fcd_100" vType="DEFAULT_VEHTYPE" speedFactor="1.06" vaporized=""/>
    <tripinfo id="53" depart="115.00" departLane="15366554#9_0" departPos="5.10" departSpeed="0.00" departDelay="0.00" arrival="329.00" arrivalLane="423506035_0" arrivalPos="41.39" arrivalSpeed="18.65" duration="214.00" routeLength="3595.10" waitingTime="33.00" waitingCount="2" stopTime="0.00" timeLoss="70.95" rerouteNo="11" devices="tripinfo_53 fcd_53" vType="DEFAULT_VEHTYPE" speedFactor="1.10" vaporized=""/>
    <tripinfo id="39" depart="90.00" departLane="1072974806_0" departPos="5.10" departSpeed="0.00" departDelay="0.00" arrival="332.00" arrivalLane="423487447#0_3" arrivalPos="44.74" arrivalSpeed="13.03" duration="242.00" routeLength="2841.07" waitingTime="50.00" waitingCount="3" stopTime="0.00" timeLoss="89.73" rerouteNo="19" devices="tripinfo_39 fcd_39" vType="DEFAULT_VEHTYPE" speedFactor="0.90" vaporized=""/>
    <tripinfo id="103" depart="254.00" departLane="746893258#0_0" departPos="5.10" departSpeed="0.00" departDelay="0.00" arrival="333.00" arrivalLane="478554548#1_0" arrivalPos="78.57" arrivalSpeed="24.11" duration="79.00" routeLength="1094.55" waitingTime="8.00" waitingCount="1" stopTime="0.00" timeLoss="26.16" rerouteNo="8" devices="tripinfo_103 fcd_103" vType="DEFAULT_VEHTYPE" speedFactor="0.95" vaporized=""/>
    <tripinfo id="122" depart="298.00" departLane="962896468#0_0" departPos="5.10" departSpeed="0.00" departDelay="0.00" arrival="333.00" arrivalLane="962816051_1" arrivalPos="20.28" arrivalSpeed="28.47" duration="35.00" routeLength="316.47" waitingTime="10.00" waitingCount="1" stopTime="0.00" timeLoss="21.96" rerouteNo="2" devices="tripinfo_122 fcd_122" vType="DEFAULT_VEHTYPE" speedFactor="1.03" vaporized=""/>
    <tripinfo id="3" depart="10.00" departLane="854649126_0" departPos="5.10" departSpeed="0.00" departDelay="0.00" arrival="334.00" arrivalLane="597602687#0_2" arrivalPos="88.21" arrivalSpeed="20.22" duration="324.00" routeLength="3479.19" waitingTime="134.00" waitingCount="4" stopTime="0.00" timeLoss="192.58" rerouteNo="15" devices="tripinfo_3 fcd_3" vType="DEFAULT_VEHTYPE" speedFactor="1.08" vaporized=""/>
    <tripinfo id="81" depart="209.00" departLane="15438674#0_0" departPos="5.10" departSpeed="0.00" departDelay="0.00" arrival="335.00" arrivalLane="962816051_0" arrivalPos="20.28" arrivalSpeed="27.00" duration="126.00" routeLength="1458.03" waitingTime="30.00" waitingCount="2" stopTime="0.00" timeLoss="63.20" rerouteNo="9" devices="tripinfo_81 fcd_81" vType="DEFAULT_VEHTYPE" speedFactor="1.00" vaporized=""/>
    <tripinfo id="101" depart="252.00" departLane="1081590611-AddedOffRampEdge_0" departPos="5.10" departSpeed="0.00" departDelay="0.00" arrival="336.00" arrivalLane="-846855219#3_0" arrivalPos="1321.07" arrivalSpeed="25.93" duration="84.00" routeLength="1902.95" waitingTime="0.00" waitingCount="0" stopTime="0.00" timeLoss="10.09" rerouteNo="7" devices="tripinfo_101 fcd_101" vType="DEFAULT_VEHTYPE" speedFactor="0.96" vaporized=""/>
    <tripinfo id="83" depart="212.00" departLane="808587434_0" departPos="5.10" departSpeed="0.00" departDelay="0.00" arrival="337.00" arrivalLane="423487436#0-AddedOffRampEdge_4" arrivalPos="96.00" arrivalSpeed="14.53" duration="125.00" routeLength="1594.88" waitingTime="28.00" waitingCount="3" stopTime="0.00" timeLoss="60.93" rerouteNo="4" devices="tripinfo_83 fcd_83" vType="DEFAULT_VEHTYPE" speedFactor="0.97" vaporized=""/>
    <tripinfo id="56" depart="120.00" departLane="987713877#0_0" departPos="0.20" departSpeed="0.00" departDelay="0.00" arrival="339.00" arrivalLane="908436863#1_0" arrivalPos="432.90" arrivalSpeed="13.75" duration="219.00" routeLength="2103.65" waitingTime="53.00" waitingCount="4" stopTime="0.00" timeLoss="90.70" rerouteNo="15" devices="tripinfo_56 fcd_56" vType="DEFAULT_VEHTYPE" speedFactor="0.90" vaporized=""/>
    <tripinfo id="61" depart="133.00" departLane="290026884_0" departPos="5.10" departSpeed="0.00" departDelay="0.00" arrival="343.00" arrivalLane="-268118792#23_1" arrivalPos="637.73" arrivalSpeed="30.89" duration="210.00" routeLength="2327.01" waitingTime="53.00" waitingCount="4" stopTime="0.00" timeLoss="91.99" rerouteNo="15" devices="tripinfo_61 fcd_61" vType="DEFAULT_VEHTYPE" speedFactor="1.12" vaporized=""/>