<?xml version="1.0" encoding="UTF-8"?>

<!-- generated on 2023-07-15 00:02:31 by Eclipse SUMO GUI Version v1_17_0+0908-fc813c74af8
<configuration xmlns:xsi="http://www.w3.org/2001/XMLSchema-instance" xsi:noNamespaceSchemaLocation="http://sumo.dlr.de/xsd/sumoConfiguration.xsd">

    <input>
        <net-file value="./configurations/osm.net.xml"/>
        <route-files value="./configurations/./Rounds/test3/static_trip.rou.xml"/>
    </input>

    <output>
        <netstate-dump value="./configurations/test_dump.xml"/>
        <fcd-output value="./configurations/testTrace.xml"/>
        <summary-output value="./configurations/summary.xml"/>
        <tripinfo-output value="./configurations/trips.trips.xml"/>
        <statistic-output value="./configurations/stats_output.xml"/>
    </output>

    <time>
        <begin value="0"/>
        <end value="200000"/>
    </time>

    <traci_server>
        <remote-port value="61287"/>
    </traci_server>

    <gui_only>
        <quit-on-end value="true"/>
    </gui_only>

</configuration>
-->

<tripinfos xmlns:xsi="http://www.w3.org/2001/XMLSchema-instance" xsi:noNamespaceSchemaLocation="http://sumo.dlr.de/xsd/tripinfo_file.xsd">
    <tripinfo id="17" depart="10.00" departLane="423487307#0-AddedOffRampEdge_0" departPos="5.10" departSpeed="0.00" departDelay="0.00" arrival="32.00" arrivalLane="724861791_0" arrivalPos="51.53" arrivalSpeed="16.97" duration="22.00" routeLength="220.38" waitingTime="0.00" waitingCount="0" stopTime="0.00" timeLoss="11.02" rerouteNo="2" devices="tripinfo_17 fcd_17" vType="DEFAULT_VEHTYPE" speedFactor="0.94" vaporized=""/>
    <tripinfo id="41" depart="27.00" departLane="597602686#9_0" departPos="5.10" departSpeed="0.00" departDelay="0.00" arrival="55.00" arrivalLane="1055874086#2_1" arrivalPos="152.08" arrivalSpeed="26.17" duration="28.00" routeLength="320.06" waitingTime="0.00" waitingCount="0" stopTime="0.00" timeLoss="12.47" rerouteNo="2" devices="tripinfo_41 fcd_41" vType="DEFAULT_VEHTYPE" speedFactor="0.96" vaporized=""/>
    <tripinfo id="9" depart="5.00" departLane="746893258#0_0" departPos="5.10" departSpeed="0.00" departDelay="0.00" arrival="69.00" arrivalLane="978715535#2_0" arrivalPos="92.64" arrivalSpeed="23.73" duration="64.00" routeLength="652.59" waitingTime="10.00" waitingCount="2" stopTime="0.00" timeLoss="29.47" rerouteNo="4" devices="tripinfo_9 fcd_9" vType="DEFAULT_VEHTYPE" speedFactor="0.86" vaporized=""/>
    <tripinfo id="72" depart="61.00" departLane="104727118#0_0" departPos="5.10" departSpeed="0.00" departDelay="0.00" arrival="78.00" arrivalLane="962816051_0" arrivalPos="20.28" arrivalSpeed="26.03" duration="17.00" routeLength="283.76" waitingTime="0.00" waitingCount="0" stopTime="0.00" timeLoss="6.05" rerouteNo="1" devices="tripinfo_72 fcd_72" vType="DEFAULT_VEHTYPE" speedFactor="0.94" vaporized=""/>
    <tripinfo id="40" depart="26.00" departLane="423487307#0_0" departPos="5.10" departSpeed="0.00" departDelay="0.00" arrival="81.00" arrivalLane="994901463#0_2" arrivalPos="128.52" arrivalSpeed="23.88" duration="55.00" routeLength="752.87" waitingTime="7.00" waitingCount="1" stopTime="0.00" timeLoss="26.48" rerouteNo="6" devices="tripinfo_40 fcd_40" vType="DEFAULT_VEHTYPE" speedFactor="1.03" vaporized=""/>
    <tripinfo id="12" depart="6.00" departLane="260359943#0_0" departPos="5.10" departSpeed="0.00" departDelay="0.00" arrival="83.00" arrivalLane="1031308683#0_2" arrivalPos="26.94" arrivalSpeed="26.71" duration="77.00" routeLength="930.52" waitingTime="16.00" waitingCount="1" stopTime="0.00" timeLoss="38.46" rerouteNo="4" devices="tripinfo_12 fcd_12" vType="DEFAULT_VEHTYPE" speedFactor="1.05" vaporized=""/>
    <tripinfo id="15" depart="9.00" departLane="423487304#0_0" departPos="5.10" departSpeed="0.00" departDelay="0.00" arrival="99.00" arrivalLane="683976549#0_0" arrivalPos="181.62" arrivalSpeed="19.95" duration="90.00" routeLength="1378.30" waitingTime="0.00" waitingCount="0" stopTime="0.00" timeLoss="22.77" rerouteNo="8" devices="tripinfo_15 fcd_15" vType="DEFAULT_VEHTYPE" speedFactor="0.93" vaporized=""/>
    <tripinfo id="36" depart="23.00" departLane="478554548#3_0" departPos="5.10" departSpeed="0.00" departDelay="0.00" arrival="99.00" arrivalLane="954632729_0" arrivalPos="62.16" arrivalSpeed="18.77" duration="76.00" routeLength="1664.01" waitingTime="0.00" waitingCount="0" stopTime="0.00" timeLoss="13.98" rerouteNo="5" devices="tripinfo_36 fcd_36" vType="DEFAULT_VEHTYPE" speedFactor="0.97" vaporized=""/>
    <tripinfo id="38" depart="25.00" departLane="423487436#0_0" departPos="0.20" departSpeed="0.00" departDelay="0.00" arrival="99.00" arrivalLane="423506031#0-AddedOffRampEdge_1" arrivalPos="93.85" arrivalSpeed="17.21" duration="74.00" routeLength="490.19" waitingTime="27.00" waitingCount="2" stopTime="0.00" timeLoss="44.72" rerouteNo="6" devices="tripinfo_38 fcd_38" vType="DEFAULT_VEHTYPE" speedFactor="1.10" vaporized=""/>
    <tripinfo id="37" depart="24.00" departLane="1081590611_0" departPos="5.10" departSpeed="0.00" departDelay="0.00" arrival="118.00" arrivalLane="290026884_0" arrivalPos="37.66" arrivalSpeed="22.17" duration="94.00" routeLength="956.78" waitingTime="33.00" waitingCount="1" stopTime="0.00" timeLoss="51.89" rerouteNo="11" devices="tripinfo_37 fcd_37" vType="DEFAULT_VEHTYPE" speedFactor="1.18" vaporized=""/>
    <tripinfo id="4" depart="1.00" departLane="962816052#1_0" departPos="5.10" departSpeed="0.00" departDelay="0.00" arrival="120.00" arrivalLane="978715535#2_2" arrivalPos="92.64" arrivalSpeed="28.23" duration="119.00" routeLength="1129.48" waitingTime="49.00" waitingCount="2" stopTime="0.00" timeLoss="76.27" rerouteNo="10" devices="tripinfo_4 fcd_4" vType="DEFAULT_VEHTYPE" speedFactor="1.03" vaporized=""/>
    <tripinfo id="0" depart="0.00" departLane="442372081#0_0" departPos="5.10" departSpeed="0.00" departDelay="0.00" arrival="124.00" arrivalLane="846813573#2_0" arrivalPos="57.90" arrivalSpeed="14.28" duration="124.00" routeLength="991.54" waitingTime="38.00" waitingCount="2" stopTime="0.00" timeLoss="68.71" rerouteNo="6" devices="tripinfo_0 fcd_0" vType="DEFAULT_VEHTYPE" speedFactor="1.06" vaporized=""/>
    <tripinfo id="54" depart="45.00" departLane="846857036#0_0" departPos="5.10" departSpeed="0.00" departDelay="0.00" arrival="130.00" arrivalLane="290026884_0" arrivalPos="37.66" arrivalSpeed="18.99" duration="85.00" routeLength="742.92" waitingTime="19.00" waitingCount="1" stopTime="0.00" timeLoss="44.31" rerouteNo="8" devices="tripinfo_54 fcd_54" vType="DEFAULT_VEHTYPE" speedFactor="1.00" vaporized=""/>
    <tripinfo id="8" depart="5.00" departLane="15389730#22_0" departPos="5.10" departSpeed="0.00" departDelay="0.00" arrival="135.00" arrivalLane="423487443#0-AddedOffRampEdge_0" arrivalPos="95.96" arrivalSpeed="13.99" duration="130.00" routeLength="1770.40" waitingTime="8.00" waitingCount="1" stopTime="0.00" timeLoss="39.11" rerouteNo="5" devices="tripinfo_8 fcd_8" vType="DEFAULT_VEHTYPE" speedFactor="0.94" vaporized=""/>
    <tripinfo id="69" depart="58.00" departLane="423487444#0-AddedOffRampEdge_0" departPos="5.10" departSpeed="0.00" departDelay="0.00" arrival="137.00" arrivalLane="988583021#0_1" arrivalPos="72.91" arrivalSpeed="15.88" duration="79.00" routeLength="479.76" waitingTime="30.00" waitingCount="2" stopTime="0.00" timeLoss="48.38" rerouteNo="3" devices="tripinfo_69 fcd_69" vType="DEFAULT_VEHTYPE" speedFactor="1.02" vaporized=""/>
    <tripinfo id="13" depart="8.00" departLane="1081590611_0" departPos="5.10" departSpeed="0.00" departDelay="0.00" arrival="139.00" arrivalLane="908435479#0_1" arrivalPos="51.55" arrivalSpeed="17.23" duration="131.00" routeLength="1690.32" waitingTime="27.00" waitingCount="2" stopTime="0.00" timeLoss="49.65" rerouteNo="10" devices="tripinfo_13 fcd_13" vType="DEFAULT_VEHTYPE" speedFactor="1.12" vaporized=""/>
    <tripinfo id="29" depart="17.00" departLane="-1128434407#1_0" departPos="5.10" departSpeed="0.00" departDelay="0.00" arrival="158.00" arrivalLane="962816051_0" arrivalPos="20.28" arrivalSpeed="25.40" duration="141.00" routeLength="2354.25" waitingTime="14.00" waitingCount="2" stopTime="0.00" timeLoss="49.23" rerouteNo="9" devices="tripinfo_29 fcd_29" vType="DEFAULT_VEHTYPE" speedFactor="0.93" vaporized=""/>
    <tripinfo id="33" depart="22.00" departLane="287525280#0_0" departPos="5.10" departSpeed="0.00" departDelay="0.00" arrival="159.00" arrivalLane="846857038#0_0" arrivalPos="46.07" arrivalSpeed="20.14" duration="137.00" routeLength="2207.94" waitingTime="1.00" waitingCount="1" stopTime="0.00" timeLoss="43.66" rerouteNo="15" devices="tripinfo_33 fcd_33" vType="DEFAULT_VEHTYPE" speedFactor="1.17" vaporized=""/>
    <tripinfo id="135" depart="135.00" departLane="1031308683#0_0" departPos="5.10" departSpeed="0.00" departDelay="0.00" arrival="161.00" arrivalLane="1031308682_2" arrivalPos="188.42" arrivalSpeed="26.98" duration="26.00" routeLength="222.90" waitingTime="3.00" waitingCount="1" stopTime="0.00" timeLoss="15.83" rerouteNo="1" devices="tripinfo_135 fcd_135" vType="DEFAULT_VEHTYPE" speedFactor="1.01" vaporized=""/>
    <tripinfo id="67" depart="57.00" departLane="423487305#0_0" departPos="5.10" departSpeed="0.00" departDelay="0.00" arrival="171.00" arrivalLane="423487449#0-AddedOffRampEdge_0" arrivalPos="95.57" arrivalSpeed="14.12" duration="114.00" routeLength="1475.94" waitingTime="13.00" waitingCount="2" stopTime="0.00" timeLoss="49.77" rerouteNo="10" devices="tripinfo_67 fcd_67" vType="DEFAULT_VEHTYPE" speedFactor="0.91" vaporized=""/>
    <tripinfo id="46" depart="32.00" departLane="962896467#0_0" departPos="5.10" departSpeed="0.00" departDelay="0.00" arrival="173.00" arrivalLane="683889359#8_1" arrivalPos="413.52" arrivalSpeed="21.78" duration="141.00" routeLength="840.79" waitingTime="70.00" waitingCount="2" stopTime="0.00" timeLoss="97.48" rerouteNo="5" devices="tripinfo_46 fcd_46" vType="DEFAULT_VEHTYPE" speedFactor="1.00" vaporized=""/>
    <tripinfo id="19" depart="13.00" departLane="987713877#1_0" departPos="5.10" departSpeed="0.00" departDelay="0.00" arrival="176.00" arrivalLane="-1128434406#2_1" arrivalPos="49.27" arrivalSpeed="22.35" duration="163.00" routeLength="2818.78" waitingTime="10.00" waitingCount="1" stopTime="0.00" timeLoss="34.76" rerouteNo="20" devices="tripinfo_19 fcd_19" vType="DEFAULT_VEHTYPE" speedFactor="1.16" vaporized=""/>
    <tripinfo id="10" depart="5.00" departLane="908435482#0_0" departPos="5.10" departSpeed="0.00" departDelay="0.00" arrival="178.00" arrivalLane="442372090_0" arrivalPos="28.28" arrivalSpeed="15.97" duration="173.00" routeLength="2081.45" waitingTime="49.00" waitingCount="2" stopTime="0.00" timeLoss="78.30" rerouteNo="16" devices="tripinfo_10 fcd_10" vType="DEFAULT_VEHTYPE" speedFactor="1.09" vaporized=""/>
    <tripinfo id="31" depart="19.00" departLane="423487375#0-AddedOffRampEdge_0" departPos="5.10" departSpeed="0.00" departDelay="0.00" arrival="182.00" arrivalLane="15399829#0_0" arrivalPos="180.92" arrivalSpeed="24.96" duration="163.00" routeLength="2658.57" waitingTime="21.00" waitingCount="2" stopTime="0.00" timeLoss="53.22" rerouteNo="10" devices="tripinfo_31 fcd_31" vType="DEFAULT_VEHTYPE" speedFactor="1.15" vaporized=""/>
    <tripinfo id="78" depart="70.00" departLane="423487450#1_0" departPos="5.10" departSpeed="0.00" departDelay="0.00" arrival="183.00" arrivalLane="423487448#0_0" arrivalPos="56.24" arrivalSpeed="14.74" duration="113.00" routeLength="994.21" waitingTime="30.00" waitingCount="2" stopTime="0.00" timeLoss="49.04" rerouteNo="9" devices="tripinfo_78 fcd_78" vType="DEFAULT_VEHTYPE" speedFactor="1.01" vaporized=""/>
    <tripinfo id="118" depart="120.00" departLane="962816053#0_0" departPos="5.10" departSpeed="0.00" departDelay="0.00" arrival="183.00" arrivalLane="423487293#0_0" arrivalPos="455.73" arrivalSpeed="14.64" duration="63.00" routeLength="671.94" waitingTime="6.00" waitingCount="1" stopTime="0.00" timeLoss="18.83" rerouteNo="3" devices="tripinfo_118 fcd_118" vType="DEFAULT_VEHTYPE" speedFactor="0.99" vaporized=""/>
    <tripinfo id="107" depart="102.00" departLane="-601725845#9_0" departPos="5.10" departSpeed="0.00" departDelay="0.00" arrival="188.00" arrivalLane="15399829#0_0" arrivalPos="180.92" arrivalSpeed="22.57" duration="86.00" routeLength="1489.87" waitingTime="0.00" waitingCount="0" stopTime="0.00" timeLoss="20.11" rerouteNo="5" devices="tripinfo_107 fcd_107" vType="DEFAULT_VEHTYPE" speedFactor="1.03" vaporized=""/>
    <tripinfo id="73" depart="62.00" departLane="1013862586#0_0" departPos="5.10" departSpeed="0.00" departDelay="0.00" arrival="189.00" arrivalLane="987713877#1_2" arrivalPos="86.71" arrivalSpeed="16.17" duration="127.00" routeLength="1350.51" waitingTime="16.00" waitingCount="2" stopTime="0.00" timeLoss="56.63" rerouteNo="10" devices="tripinfo_73 fcd_73" vType="DEFAULT_VEHTYPE" speedFactor="1.06" vaporized=""/>
    <tripinfo id="32" depart="20.00" departLane="846855219#0_0" departPos="5.10" departSpeed="0.00" departDelay="0.00" arrival="190.00" arrivalLane="442372081#11_1" arrivalPos="147.96" arrivalSpeed="21.54" duration="170.00" routeLength="2508.88" waitingTime="33.00" waitingCount="2" stopTime="0.00" timeLoss="63.25" rerouteNo="9" devices="tripinfo_32 fcd_32" vType="DEFAULT_VEHTYPE" speedFactor="1.01" vaporized=""/>
    <tripinfo id="1" depart="0.00" departLane="808587434_0" departPos="5.10" departSpeed="0.00" departDelay="0.00" arrival="193.00" arrivalLane="423487258#0_1" arrivalPos="436.14" arrivalSpeed="25.06" duration="193.00" routeLength="1964.46" waitingTime="63.00" waitingCount="2" stopTime="0.00" timeLoss="89.74" rerouteNo="4" devices="tripinfo_1 fcd_1" vType="DEFAULT_VEHTYPE" speedFactor="0.94" vaporized=""/>
    <tripinfo id="39" depart="26.00" departLane="290026885_0" departPos="5.10" departSpeed="0.00" departDelay="0.00" arrival="194.00" arrivalLane="423487461_0" arrivalPos="41.97" arrivalSpeed="14.64" duration="168.00" routeLength="1303.06" waitingTime="44.00" waitingCount="3" stopTime="0.00" timeLoss="72.98" rerouteNo="15" devices="tripinfo_39 fcd_39" vType="DEFAULT_VEHTYPE" speedFactor="0.90" vaporized=""/>
    <tripinfo id="20" depart="13.00" departLane="1031308683#0_0" departPos="5.10" departSpeed="0.00" departDelay="0.00" arrival="200.00" arrivalLane="442372090_2" arrivalPos="28.28" arrivalSpeed="15.05" duration="187.00" routeLength="2399.37" waitingTime="47.00" waitingCount="3" stopTime="0.00" timeLoss="90.42" rerouteNo="11" devices="tripinfo_20 fcd_20" vType="DEFAULT_VEHTYPE" speedFactor="1.02" vaporized=""/>
    <tripinfo id="116" depart="119.00" departLane="423487448#0_0" departPos="5.10" departSpeed="0.00" departDelay="0.00" arrival="202.00" arrivalLane="987713877#1_2" arrivalPos="86.71" arrivalSpeed="17.91" duration="83.00" routeLength="1141.07" waitingTime="0.00" waitingCount="0" stopTime="0.00" timeLoss="18.48" rerouteNo="12" devices="tripinfo_116 fcd_116" vType="DEFAULT_VEHTYPE" speedFactor="1.18" vaporized=""/>
    <tripinfo id="27" depart="17.00" departLane="1031308683#0-AddedOnRampEdge_0" departPos="5.10" departSpeed="0.00" departDelay="0.00" arrival="203.00" arrivalLane="-15440930#4_0" arrivalPos="111.34" arrivalSpeed="12.14" duration="186.00" routeLength="2591.60" waitingTime="33.00" waitingCount="2" stopTime="0.00" timeLoss="73.96" rerouteNo="11" devices="tripinfo_27 fcd_27" vType="DEFAULT_VEHTYPE" speedFactor="0.95" vaporized=""/>
    <tripinfo id="55" depart="45.00" departLane="808587436#0_0" departPos="5.10" departSpeed="0.00" departDelay="0.00" arrival="203.00" arrivalLane="1081590611-AddedOffRampEdge_2" arrivalPos="94.61" arrivalSpeed="22.03" duration="158.00" routeLength="2448.89" waitingTime="6.00" waitingCount="1" stopTime="0.00" timeLoss="31.82" rerouteNo="9" devices="tripinfo_55 fcd_55" vType="DEFAULT_VEHTYPE" speedFactor="1.00" vaporized=""/>
    <tripinfo id="22" depart="14.00" departLane="954632489_0" departPos="5.10" departSpeed="0.00" departDelay="0.00" arrival="204.00" arrivalLane="536058718_0" arrivalPos="43.51" arrivalSpeed="26.22" duration="190.00" routeLength="2583.21" waitingTime="56.00" waitingCount="3" stopTime="0.00" timeLoss="94.34" rerouteNo="11" devices="tripinfo_22 fcd_22" vType="DEFAULT_VEHTYPE" speedFactor="0.97" vaporized=""/>
    <tripinfo id="108" depart="104.00" departLane="423487421#0_0" departPos="5.10" departSpeed="0.00" departDelay="0.00" arrival="204.00" arrivalLane="988583021#3_1" arrivalPos="51.50" arrivalSpeed="15.87" duration="100.00" routeLength="883.70" waitingTime="33.00" waitingCount="1" stopTime="0.00" timeLoss="46.63" rerouteNo="7" devices="tripinfo_108 fcd_108" vType="DEFAULT_VEHTYPE" speedFactor="1.06" vaporized=""/>
    <tripinfo id="82" depart="73.00" departLane="846813573#2_0" departPos="5.10" departSpeed="0.00" departDelay="0.00" arrival="206.00" arrivalLane="746893257#0_0" arrivalPos="18.31" arrivalSpeed="21.99" duration="133.00" routeLength="1577.24" waitingTime="14.00" waitingCount="2" stopTime="0.00" timeLoss="48.40" rerouteNo="10" devices="tripinfo_82 fcd_82" vType="DEFAULT_VEHTYPE" speedFactor="1.02" vaporized=""/>
    <tripinfo id="165" depart="159.00" departLane="423487419#0_0" departPos="5.10" departSpeed="0.00" departDelay="0.00" arrival="206.00" arrivalLane="295292535_0" arrivalPos="47.33" arrivalSpeed="19.12" duration="47.00" routeLength="515.83" waitingTime="0.00" waitingCount="0" stopTime="0.00" timeLoss="9.79" rerouteNo="6" devices="tripinfo_165 fcd_165" vType="DEFAULT_VEHTYPE" speedFactor="0.91" vaporized=""/>
    <tripinfo id="121" depart="121.00" departLane="423505999#0_0" departPos="5.10" departSpeed="0.00" departDelay="0.00" arrival="207.00" arrivalLane="-15458116_0" arrivalPos="430.32" arrivalSpeed="23.90" duration="86.00" routeLength="1617.82" waitingTime="0.00" waitingCount="0" stopTime="0.00" timeLoss="23.33" rerouteNo="4" devices="tripinfo_121 fcd_121" vType="DEFAULT_VEHTYPE" speedFactor="1.10" vaporized=""/>
    <tripinfo id="76" depart="66.00" departLane="-601725845#19_0" departPos="5.10" departSpeed="0.00" departDelay="0.00" arrival="213.00" arrivalLane="442372093#1_1" arrivalPos="88.27" arrivalSpeed="15.17" duration="147.00" routeLength="1828.96" waitingTime="29.00" waitingCount="2" stopTime="0.00" timeLoss="60.78" rerouteNo="4" devices="tripinfo_76 fcd_76" vType="DEFAULT_VEHTYPE" speedFactor="1.03" vaporized=""/>
    <tripinfo id="79" depart="72.00" departLane="312824884#0_0" departPos="5.10" departSpeed="0.00" departDelay="0.00" arrival="213.00" arrivalLane="310973089#0_0" arrivalPos="183.58" arrivalSpeed="23.30" duration="141.00" routeLength="1860.41" waitingTime="25.00" waitingCount="2" stopTime="0.00" timeLoss="49.82" rerouteNo="12" devices="tripinfo_79 fcd_79" vType="DEFAULT_VEHTYPE" speedFactor="1.09" vaporized=""/>
    <tripinfo id="106" depart="102.00" departLane="968816563#0_0" departPos="5.10" departSpeed="0.00" departDelay="0.00" arrival="213.00" arrivalLane="423487463_0" arrivalPos="53.06" arrivalSpeed="16.99" duration="111.00" routeLength="2082.07" waitingTime="0.00" waitingCount="0" stopTime="0.00" timeLoss="14.39" rerouteNo="5" devices="tripinfo_106 fcd_106" vType="DEFAULT_VEHTYPE" speedFactor="1.01" vaporized=""/>
    <tripinfo id="52" depart="42.00" departLane="968816564#0_0" departPos="5.10" departSpeed="0.00" departDelay="0.00" arrival="214.00" arrivalLane="442372081#0_1" arrivalPos="277.91" arrivalSpeed="21.46" duration="172.00" routeLength="2885.31" waitingTime="16.00" waitingCount="3" stopTime="0.00" timeLoss="55.52" rerouteNo="13" devices="tripinfo_52 fcd_52" vType="DEFAULT_VEHTYPE" speedFactor="1.02" vaporized=""/>
    <tripinfo id="30" depart="19.00" departLane="1055874086#2_0" departPos="5.10" departSpeed="0.00" departDelay="0.00" arrival="215.00" arrivalLane="854649126_0" arrivalPos="1292.19" arrivalSpeed="25.35" duration="196.00" routeLength="3860.94" waitingTime="12.00" waitingCount="3" stopTime="0.00" timeLoss="55.93" rerouteNo="7" devices="tripinfo_30 fcd_30" vType="DEFAULT_VEHTYPE" speedFactor="1.18" vaporized=""/>
    <tripinfo id="117" depart="120.00" departLane="-268118792#13_0" departPos="5.10" departSpeed="0.00" departDelay="0.00" arrival="216.00" arrivalLane="1128434406#0_1" arrivalPos="49.27" arrivalSpeed="15.26" duration="96.00" routeLength="553.19" waitingTime="63.00" waitingCount="1" stopTime="0.00" timeLoss="75.13" rerouteNo="3" devices="tripinfo_117 fcd_117" vType="DEFAULT_VEHTYPE" speedFactor="1.00" vaporized=""/>
    <tripinfo id="75" depart="65.00" departLane="423487386#0_0" departPos="5.10" departSpeed="0.00" departDelay="0.00" arrival="217.00" arrivalLane="423487448#0_0" arrivalPos="56.24" arrivalSpeed="14.53" duration="152.00" routeLength="604.00" waitingTime="94.00" waitingCount="3" stopTime="0.00" timeLoss="112.45" rerouteNo="7" devices="tripinfo_75 fcd_75" vType="DEFAULT_VEHTYPE" speedFactor="0.98" vaporized=""/>
    <tripinfo id="156" depart="154.00" departLane="978715537#0_0" departPos="5.10" departSpeed="0.00" departDelay="0.00" arrival="217.00" arrivalLane="1081590615_1" arrivalPos="5.85" arrivalSpeed="25.43" duration="63.00" routeLength="569.75" waitingTime="16.00" waitingCount="2" stopTime="0.00" timeLoss="40.93" rerouteNo="3" devices="tripinfo_156 fcd_156" vType="DEFAULT_VEHTYPE" speedFactor="1.18" vaporized=""/>
    <tripinfo id="91" depart="89.00" departLane="985219577_0" departPos="5.10" departSpeed="0.00" departDelay="0.00" arrival="218.00" arrivalLane="846857039#0_0" arrivalPos="43.36" arrivalSpeed="5.71" duration="129.00" routeLength="1634.60" waitingTime="23.00" waitingCount="2" stopTime="0.00" timeLoss="51.37" rerouteNo="13" devices="tripinfo_91 fcd_91" vType="DEFAULT_VEHTYPE" speedFactor="0.89" vaporized=""/>
    <tripinfo id="101" depart="97.00" departLane="290026879_0" departPos="5.10" departSpeed="0.00" departDelay="0.00" arrival="219.00" arrivalLane="442372081#11_3" arrivalPos="147.96" arrivalSpeed="19.97" duration="122.00" routeLength="1154.45" waitingTime="29.00" waitingCount="2" stopTime="0.00" timeLoss="53.26" rerouteNo="9" devices="tripinfo_101 fcd_101" vType="DEFAULT_VEHTYPE" speedFactor="0.96" vaporized=""/>
    <tripinfo id="66" depart="57.00" departLane="423487450#1_0" departPos="5.10" departSpeed="0.00" departDelay="0.00" arrival="222.00" arrivalLane="-746893261#1_0" arrivalPos="285.85" arrivalSpeed="19.07" duration="165.00" routeLength="1672.20" waitingTime="42.00" waitingCount="3" stopTime="0.00" timeLoss="73.14" rerouteNo="8" devices="tripinfo_66 fcd_66" vType="DEFAULT_VEHTYPE" speedFactor="0.91" vaporized=""/>
    <tripinfo id="176" depart="167.00" departLane="987713878_0" departPos="5.10" departSpeed="0.00" departDelay="0.00" arrival="222.00" arrivalLane="442372090-AddedOffRampEdge_3" arrivalPos="95.23" arrivalSpeed="15.91" duration="55.00" routeLength="638.64" waitingTime="1.00" waitingCount="1" stopTime="0.00" timeLoss="16.77" rerouteNo="7" devices="tripinfo_176 fcd_176" vType="DEFAULT_VEHTYPE" speedFactor="1.09" vaporized=""/>
    <tripinfo id="84" depart="74.00" departLane="423487302#0_0" departPos="5.10" departSpeed="0.00" departDelay="0.00" arrival="223.00" arrivalLane="423487256#0_1" arrivalPos="41.39" arrivalSpeed="30.87" duration="149.00" routeLength="2106.20" waitingTime="26.00" waitingCount="2" stopTime="0.00" timeLoss="71.65" rerouteNo="13" devices="tripinfo_84 fcd_84" vType="DEFAULT_VEHTYPE" speedFactor="1.15" vaporized=""/>
    <tripinfo id="152" depart="152.00" departLane="962816053#0_0" departPos="5.10" departSpeed="0.00" departDelay="0.00" arrival="223.00" arrivalLane="423487306#0_2" arrivalPos="201.87" arrivalSpeed="29.73" duration="71.00" routeLength="267.23" waitingTime="47.00" waitingCount="1" stopTime="0.00" timeLoss="60.26" rerouteNo="1" devices="tripinfo_152 fcd_152" vType="DEFAULT_VEHTYPE" speedFactor="1.07" vaporized=""/>
    <tripinfo id="48" depart="35.00" departLane="15389730#22_0" departPos="5.10" departSpeed="0.00" departDelay="0.00" arrival="224.00" arrivalLane="846857035#0_1" arrivalPos="48.29" arrivalSpeed="21.23" duration="189.00" routeLength="2353.00" waitingTime="31.00" waitingCount="2" stopTime="0.00" timeLoss="66.03" rerouteNo="6" devices="tripinfo_48 fcd_48" vType="DEFAULT_VEHTYPE" speedFactor="0.88" vaporized=""/>
    <tripinfo id="93" depart="90.00" departLane="-15435154#5_0" departPos="5.10" departSpeed="0.00" departDelay="0.00" arrival="226.00" arrivalLane="968816563#0_2" arrivalPos="273.26" arrivalSpeed="25.10" duration="136.00" routeLength="2403.14" waitingTime="0.00" waitingCount="0" stopTime="0.00" timeLoss="18.45" rerouteNo="2" devices="tripinfo_93 fcd_93" vType="DEFAULT_VEHTYPE" speedFactor="0.92" vaporized=""/>
    <tripinfo id="100" depart="96.00" departLane="423487302#0_0" departPos="5.10" departSpeed="0.00" departDelay="0.00" arrival="226.00" arrivalLane="978715536_2" arrivalPos="18.56" arrivalSpeed="29.55" duration="130.00" routeLength="1068.81" waitingTime="65.00" waitingCount="2" stopTime="0.00" timeLoss="91.31" rerouteNo="10" devices="tripinfo_100 fcd_100" vType="DEFAULT_VEHTYPE" speedFactor="1.06" vaporized=""/>
    <tripinfo id="120" depart="121.00" departLane="104717225#0_0" departPos="5.10" departSpeed="0.00" departDelay="0.00" arrival="227.00" arrivalLane="908436860#0_2" arrivalPos="191.04" arrivalSpeed="13.63" duration="106.00" routeLength="1055.63" waitingTime="37.00" waitingCount="1" stopTime="0.00" timeLoss="55.84" rerouteNo="6" devices="tripinfo_120 fcd_120" vType="DEFAULT_VEHTYPE" speedFactor="0.94" vaporized=""/>
    <tripinfo id="104" depart="100.00" departLane="988583021#0_0" departPos="5.10" departSpeed="0.00" departDelay="0.00" arrival="228.00" arrivalLane="1081590613#0_2" arrivalPos="129.35" arrivalSpeed="19.40" duration="128.00" routeLength="1521.52" waitingTime="14.00" waitingCount="2" stopTime="0.00" timeLoss="43.94" rerouteNo="10" devices="tripinfo_104 fcd_104" vType="DEFAULT_VEHTYPE" speedFactor="0.89" vaporized=""/>
    <tripinfo id="94" depart="91.00" departLane="104727118#0_0" departPos="5.10" departSpeed="0.00" departDelay="0.00" arrival="229.00" arrivalLane="978715536_2" arrivalPos="18.56" arrivalSpeed="30.07" duration="138.00" routeLength="1503.37" waitingTime="40.00" waitingCount="3" stopTime="0.00" timeLoss="85.18" rerouteNo="14" devices="tripinfo_94 fcd_94" vType="DEFAULT_VEHTYPE" speedFactor="1.09" vaporized=""/>
    <tripinfo id="87" depart="78.00" departLane="1081590609_0" departPos="5.10" departSpeed="0.00" departDelay="0.00" arrival="232.00" arrivalLane="755435068_0" arrivalPos="28.31" arrivalSpeed="19.40" duration="154.00" routeLength="1146.43" waitingTime="58.00" waitingCount="3" stopTime="0.00" timeLoss="91.16" rerouteNo="15" devices="tripinfo_87 fcd_87" vType="DEFAULT_VEHTYPE" speedFactor="1.04" vaporized=""/>
    <tripinfo id="83" depart="74.00" departLane="423487449#0_0" departPos="0.20" departSpeed="0.00" departDelay="0.00" arrival="233.00" arrivalLane="442372090_2" arrivalPos="28.28" arrivalSpeed="13.97" duration="159.00" routeLength="1714.92" waitingTime="19.00" waitingCount="1" stopTime="0.00" timeLoss="43.04" rerouteNo="14" devices="tripinfo_83 fcd_83" vType="DEFAULT_VEHTYPE" speedFactor="0.97" vaporized=""/>
    <tripinfo id="103" depart="100.00" departLane="1072974806_0" departPos="5.10" departSpeed="0.00" departDelay="0.00" arrival="233.00" arrivalLane="846857035#0_1" arrivalPos="48.29" arrivalSpeed="26.22" duration="133.00" routeLength="2014.89" waitingTime="27.00" waitingCount="1" stopTime="0.00" timeLoss="56.59" rerouteNo="8" devices="tripinfo_103 fcd_103" vType="DEFAULT_VEHTYPE" speedFactor="0.95" vaporized=""/>
    <tripinfo id="139" depart="138.00" departLane="423506027_0" departPos="0.20" departSpeed="0.00" departDelay="0.00" arrival="234.00" arrivalLane="423487375#0-AddedOffRampEdge_0" arrivalPos="96.00" arrivalSpeed="14.05" duration="96.00" routeLength="882.81" waitingTime="20.00" waitingCount="1" stopTime="0.00" timeLoss="36.27" rerouteNo="7" devices="tripinfo_139 fcd_139" vType="DEFAULT_VEHTYPE" speedFactor="0.95" vaporized=""/>
    <tripinfo id="49" depart="39.00" departLane="423506031#0-AddedOffRampEdge_0" departPos="5.10" departSpeed="0.00" departDelay="0.00" arrival="239.00" arrivalLane="981165359#0_0" arrivalPos="450.47" arrivalSpeed="23.56" duration="200.00" routeLength="2351.29" waitingTime="53.00" waitingCount="2" stopTime="0.00" timeLoss="84.27" rerouteNo="6" devices="tripinfo_49 fcd_49" vType="DEFAULT_VEHTYPE" speedFactor="0.85" vaporized=""/>
    <tripinfo id="70" depart="60.00" departLane="423487304#0_0" departPos="5.10" departSpeed="0.00" departDelay="0.00" arrival="240.00" arrivalLane="442372090_0" arrivalPos="28.28" arrivalSpeed="15.09" duration="180.00" routeLength="2180.91" waitingTime="43.00" waitingCount="3" stopTime="0.00" timeLoss="80.60" rerouteNo="18" devices="tripinfo_70 fcd_70" vType="DEFAULT_VEHTYPE" speedFactor="1.02" vaporized=""/>
    <tripinfo id="219" depart="206.00" departLane="312824885#3_0" departPos="5.10" departSpeed="0.00" departDelay="0.00" arrival="240.00" arrivalLane="846857035#0_1" arrivalPos="48.29" arrivalSpeed="5.67" duration="34.00" routeLength="448.92" waitingTime="0.00" waitingCount="0" stopTime="0.00" timeLoss="13.88" rerouteNo="5" devices="tripinfo_219 fcd_219" vType="DEFAULT_VEHTYPE" speedFactor="0.91" vaporized=""/>
    <tripinfo id="155" depart="154.00" departLane="908436862#0_0" departPos="5.10" departSpeed="0.00" departDelay="0.00" arrival="241.00" arrivalLane="1081590615_1" arrivalPos="5.85" arrivalSpeed="23.84" duration="87.00" routeLength="1491.51" waitingTime="0.00" waitingCount="0" stopTime="0.00" timeLoss="13.81" rerouteNo="6" devices="tripinfo_155 fcd_155" vType="DEFAULT_VEHTYPE" speedFactor="1.12" vaporized=""/>