<?xml version="1.0" encoding="UTF-8"?>

<!-- generated on 2023-07-17 13:00:42 by Eclipse SUMO GUI Version v1_17_0+0908-fc813c74af8
<configuration xmlns:xsi="http://www.w3.org/2001/XMLSchema-instance" xsi:noNamespaceSchemaLocation="http://sumo.dlr.de/xsd/sumoConfiguration.xsd">

    <input>
        <net-file value="./configurations/osm.net.xml"/>
        <route-files value="./configurations/./Rounds/qtest3/static_trip.rou.xml"/>
    </input>

    <output>
        <netstate-dump value="./configurations/test_dump.xml"/>
        <fcd-output value="./configurations/testTrace.xml"/>
        <summary-output value="./configurations/summary.xml"/>
        <tripinfo-output value="./configurations/trips.trips.xml"/>
        <statistic-output value="./configurations/stats_output.xml"/>
    </output>

    <time>
        <begin value="0"/>
        <end value="200000"/>
    </time>

    <traci_server>
        <remote-port value="51708"/>
    </traci_server>

    <gui_only>
        <quit-on-end value="true"/>
    </gui_only>

</configuration>
-->

<tripinfos xmlns:xsi="http://www.w3.org/2001/XMLSchema-instance" xsi:noNamespaceSchemaLocation="http://sumo.dlr.de/xsd/tripinfo_file.xsd">
    <tripinfo id="0" depart="30.00" departLane="-755435067#3_0" departPos="5.10" departSpeed="0.00" departDelay="0.00" arrival="49.00" arrivalLane="290026883_0" arrivalPos="16.36" arrivalSpeed="18.54" duration="19.00" routeLength="208.57" waitingTime="0.00" waitingCount="0" stopTime="0.00" timeLoss="6.46" rerouteNo="2" devices="tripinfo_0 fcd_0" vType="DEFAULT_VEHTYPE" speedFactor="1.06" vaporized=""/>
    <tripinfo id="1" depart="51.00" departLane="295292535_0" departPos="5.10" departSpeed="0.00" departDelay="0.00" arrival="100.00" arrivalLane="423506031#0-AddedOffRampEdge_2" arrivalPos="93.85" arrivalSpeed="14.09" duration="49.00" routeLength="371.58" waitingTime="9.00" waitingCount="1" stopTime="0.00" timeLoss="23.26" rerouteNo="4" devices="tripinfo_1 fcd_1" vType="DEFAULT_VEHTYPE" speedFactor="0.94" vaporized=""/>
    <tripinfo id="2" depart="72.00" departLane="957134129#0_0" departPos="5.10" departSpeed="0.00" departDelay="0.00" arrival="153.00" arrivalLane="601725847#0_0" arrivalPos="267.79" arrivalSpeed="21.29" duration="81.00" routeLength="869.45" waitingTime="14.00" waitingCount="1" stopTime="0.00" timeLoss="43.37" rerouteNo="5" devices="tripinfo_2 fcd_2" vType="DEFAULT_VEHTYPE" speedFactor="1.01" vaporized=""/>
    <tripinfo id="4" depart="90.00" departLane="104727118#0_0" departPos="5.10" departSpeed="0.00" departDelay="0.00" arrival="184.00" arrivalLane="423487296_0" arrivalPos="28.71" arrivalSpeed="15.95" duration="94.00" routeLength="1134.55" waitingTime="21.00" waitingCount="1" stopTime="0.00" timeLoss="35.77" rerouteNo="8" devices="tripinfo_4 fcd_4" vType="DEFAULT_VEHTYPE" speedFactor="1.03" vaporized=""/>
    <tripinfo id="8" depart="127.00" departLane="755435065#0_0" departPos="5.10" departSpeed="0.00" departDelay="0.00" arrival="202.00" arrivalLane="310973089#0_0" arrivalPos="183.58" arrivalSpeed="19.91" duration="75.00" routeLength="1098.83" waitingTime="3.00" waitingCount="1" stopTime="0.00" timeLoss="19.85" rerouteNo="3" devices="tripinfo_8 fcd_8" vType="DEFAULT_VEHTYPE" speedFactor="0.94" vaporized=""/>
    <tripinfo id="6" depart="107.00" departLane="962896467#3_0" departPos="5.10" departSpeed="0.00" departDelay="0.00" arrival="219.00" arrivalLane="-1128434407#1_0" arrivalPos="45.64" arrivalSpeed="17.52" duration="112.00" routeLength="1079.58" waitingTime="40.00" waitingCount="3" stopTime="0.00" timeLoss="74.30" rerouteNo="8" devices="tripinfo_6 fcd_6" vType="DEFAULT_VEHTYPE" speedFactor="1.05" vaporized=""/>
    <tripinfo id="9" depart="127.00" departLane="423487438#0_0" departPos="5.10" departSpeed="0.00" departDelay="0.00" arrival="240.00" arrivalLane="15302679_0" arrivalPos="35.58" arrivalSpeed="12.68" duration="113.00" routeLength="633.50" waitingTime="45.00" waitingCount="2" stopTime="0.00" timeLoss="62.82" rerouteNo="8" devices="tripinfo_9 fcd_9" vType="DEFAULT_VEHTYPE" speedFactor="0.86" vaporized=""/>
    <tripinfo id="3" depart="73.00" departLane="597528981#0_0" departPos="5.10" departSpeed="0.00" departDelay="0.00" arrival="268.00" arrivalLane="423487444#0_3" arrivalPos="90.02" arrivalSpeed="16.45" duration="195.00" routeLength="2511.80" waitingTime="39.00" waitingCount="3" stopTime="0.00" timeLoss="76.73" rerouteNo="13" devices="tripinfo_3 fcd_3" vType="DEFAULT_VEHTYPE" speedFactor="1.08" vaporized=""/>
    <tripinfo id="7" depart="114.00" departLane="957134129#0_0" departPos="5.10" departSpeed="0.00" departDelay="0.00" arrival="291.00" arrivalLane="442372090_2" arrivalPos="28.28" arrivalSpeed="13.04" duration="177.00" routeLength="1852.82" waitingTime="21.00" waitingCount="3" stopTime="0.00" timeLoss="53.45" rerouteNo="12" devices="tripinfo_7 fcd_7" vType="DEFAULT_VEHTYPE" speedFactor="0.89" vaporized=""/>
    <tripinfo id="11" depart="145.00" departLane="312824885#3_0" departPos="5.10" departSpeed="0.00" departDelay="0.00" arrival="292.00" arrivalLane="423487354#0_0" arrivalPos="89.27" arrivalSpeed="15.75" duration="147.00" routeLength="1278.16" waitingTime="43.00" waitingCount="2" stopTime="0.00" timeLoss="68.80" rerouteNo="12" devices="tripinfo_11 fcd_11" vType="DEFAULT_VEHTYPE" speedFactor="1.03" vaporized=""/>
    <tripinfo id="14" depart="164.00" departLane="846857039#0_0" departPos="5.10" departSpeed="0.00" departDelay="0.00" arrival="298.00" arrivalLane="104717225#0_0" arrivalPos="110.33" arrivalSpeed="21.05" duration="134.00" routeLength="1548.95" waitingTime="38.00" waitingCount="1" stopTime="0.00" timeLoss="62.92" rerouteNo="10" devices="tripinfo_14 fcd_14" vType="DEFAULT_VEHTYPE" speedFactor="0.99" vaporized=""/>
    <tripinfo id="18" depart="197.00" departLane="442372090_0" departPos="5.10" departSpeed="0.00" departDelay="0.00" arrival="311.00" arrivalLane="1081590613#0_0" arrivalPos="129.35" arrivalSpeed="20.52" duration="114.00" routeLength="1218.24" waitingTime="29.00" waitingCount="1" stopTime="0.00" timeLoss="46.07" rerouteNo="11" devices="tripinfo_18 fcd_18" vType="DEFAULT_VEHTYPE" speedFactor="0.94" vaporized=""/>
    <tripinfo id="12" depart="157.00" departLane="-968816562#27_0" departPos="5.10" departSpeed="0.00" departDelay="0.00" arrival="327.00" arrivalLane="287525280#0_0" arrivalPos="554.60" arrivalSpeed="28.87" duration="170.00" routeLength="3241.54" waitingTime="1.00" waitingCount="1" stopTime="0.00" timeLoss="28.78" rerouteNo="5" devices="tripinfo_12 fcd_12" vType="DEFAULT_VEHTYPE" speedFactor="1.05" vaporized=""/>
    <tripinfo id="13" depart="163.00" departLane="957134129#0_0" departPos="5.10" departSpeed="0.00" departDelay="0.00" arrival="333.00" arrivalLane="846857038#0_0" arrivalPos="46.07" arrivalSpeed="20.56" duration="170.00" routeLength="1739.34" waitingTime="42.00" waitingCount="2" stopTime="0.00" timeLoss="82.94" rerouteNo="12" devices="tripinfo_13 fcd_13" vType="DEFAULT_VEHTYPE" speedFactor="1.12" vaporized=""/>
    <tripinfo id="17" depart="187.00" departLane="994901460#0_0" departPos="5.10" departSpeed="0.00" departDelay="0.00" arrival="366.00" arrivalLane="-15438674#3_0" arrivalPos="143.30" arrivalSpeed="20.22" duration="179.00" routeLength="2765.71" waitingTime="34.00" waitingCount="3" stopTime="0.00" timeLoss="65.34" rerouteNo="13" devices="tripinfo_17 fcd_17" vType="DEFAULT_VEHTYPE" speedFactor="0.94" vaporized=""/>
    <tripinfo id="19" depart="199.00" departLane="-15422879#3_0" departPos="5.10" departSpeed="0.00" departDelay="0.00" arrival="377.00" arrivalLane="846813575#0_0" arrivalPos="363.78" arrivalSpeed="15.83" duration="178.00" routeLength="2668.44" waitingTime="12.00" waitingCount="2" stopTime="0.00" timeLoss="49.72" rerouteNo="9" devices="tripinfo_19 fcd_19" vType="DEFAULT_VEHTYPE" speedFactor="1.16" vaporized=""/>
    <tripinfo id="22" depart="222.00" departLane="295292535_0" departPos="5.10" departSpeed="0.00" departDelay="0.00" arrival="379.00" arrivalLane="968816563#0_0" arrivalPos="273.26" arrivalSpeed="26.90" duration="157.00" routeLength="2245.53" waitingTime="15.00" waitingCount="2" stopTime="0.00" timeLoss="46.35" rerouteNo="8" devices="tripinfo_22 fcd_22" vType="DEFAULT_VEHTYPE" speedFactor="0.97" vaporized=""/>
    <tripinfo id="20" depart="208.00" departLane="601725845#10_0" departPos="5.10" departSpeed="0.00" departDelay="0.00" arrival="389.00" arrivalLane="423487307#3_2" arrivalPos="111.89" arrivalSpeed="28.03" duration="181.00" routeLength="2797.24" waitingTime="26.00" waitingCount="1" stopTime="0.00" timeLoss="61.05" rerouteNo="7" devices="tripinfo_20 fcd_20" vType="DEFAULT_VEHTYPE" speedFactor="1.02" vaporized=""/>
    <tripinfo id="10" depart="133.00" departLane="994901463#0_0" departPos="5.10" departSpeed="0.00" departDelay="0.00" arrival="392.00" arrivalLane="908436859#0_0" arrivalPos="45.56" arrivalSpeed="15.96" duration="259.00" routeLength="4504.85" waitingTime="20.00" waitingCount="1" stopTime="0.00" timeLoss="62.21" rerouteNo="21" devices="tripinfo_10 fcd_10" vType="DEFAULT_VEHTYPE" speedFactor="1.09" vaporized=""/>
    <tripinfo id="15" depart="166.00" departLane="808587436#0_0" departPos="5.10" departSpeed="0.00" departDelay="0.00" arrival="402.00" arrivalLane="-755435068_0" arrivalPos="28.31" arrivalSpeed="18.69" duration="236.00" routeLength="2382.39" waitingTime="71.00" waitingCount="3" stopTime="0.00" timeLoss="101.50" rerouteNo="14" devices="tripinfo_15 fcd_15" vType="DEFAULT_VEHTYPE" speedFactor="0.93" vaporized=""/>
    <tripinfo id="29" depart="285.00" departLane="423487451#0_0" departPos="5.10" departSpeed="0.00" departDelay="0.00" arrival="405.00" arrivalLane="-683976549#1_1" arrivalPos="181.62" arrivalSpeed="20.42" duration="120.00" routeLength="1340.93" waitingTime="11.00" waitingCount="2" stopTime="0.00" timeLoss="42.37" rerouteNo="8" devices="tripinfo_29 fcd_29" vType="DEFAULT_VEHTYPE" speedFactor="0.93" vaporized=""/>
    <tripinfo id="37" depart="347.00" departLane="957134129#0_0" departPos="5.10" departSpeed="0.00" departDelay="0.00" arrival="406.00" arrivalLane="423487449#0-AddedOffRampEdge_0" arrivalPos="95.57" arrivalSpeed="17.21" duration="59.00" routeLength="520.95" waitingTime="24.00" waitingCount="1" stopTime="0.00" timeLoss="39.65" rerouteNo="2" devices="tripinfo_37 fcd_37" vType="DEFAULT_VEHTYPE" speedFactor="1.18" vaporized=""/>
    <tripinfo id="24" depart="234.00" departLane="724861791_0" departPos="5.10" departSpeed="0.00" departDelay="0.00" arrival="413.00" arrivalLane="968816560_2" arrivalPos="29.90" arrivalSpeed="22.68" duration="179.00" routeLength="1805.92" waitingTime="70.00" waitingCount="2" stopTime="0.00" timeLoss="96.89" rerouteNo="12" devices="tripinfo_24 fcd_24" vType="DEFAULT_VEHTYPE" speedFactor="0.83" vaporized=""/>
    <tripinfo id="5" depart="103.00" departLane="-556603473#2_0" departPos="5.10" departSpeed="0.00" departDelay="0.00" arrival="416.00" arrivalLane="15438674#0_0" arrivalPos="143.30" arrivalSpeed="18.11" duration="313.00" routeLength="4821.30" waitingTime="8.00" waitingCount="2" stopTime="0.00" timeLoss="49.55" rerouteNo="13" devices="tripinfo_5 fcd_5" vType="DEFAULT_VEHTYPE" speedFactor="0.83" vaporized=""/>
    <tripinfo id="27" depart="277.00" departLane="978715535#2_0" departPos="5.10" departSpeed="0.00" departDelay="0.00" arrival="421.00" arrivalLane="423487439#0_0" arrivalPos="40.81" arrivalSpeed="13.57" duration="144.00" routeLength="1801.45" waitingTime="27.00" waitingCount="2" stopTime="0.00" timeLoss="55.17" rerouteNo="15" devices="tripinfo_27 fcd_27" vType="DEFAULT_VEHTYPE" speedFactor="0.95" vaporized=""/>
    <tripinfo id="47" depart="396.00" departLane="846857039#0_0" departPos="5.10" departSpeed="0.00" departDelay="1.00" arrival="431.00" arrivalLane="988583021#0_3" arrivalPos="72.91" arrivalSpeed="13.53" duration="35.00" routeLength="150.17" waitingTime="15.00" waitingCount="1" stopTime="0.00" timeLoss="24.50" rerouteNo="1" devices="tripinfo_47 fcd_47" vType="DEFAULT_VEHTYPE" speedFactor="0.90" vaporized=""/>
    <tripinfo id="30" depart="305.00" departLane="962896467#3_0" departPos="5.10" departSpeed="0.00" departDelay="0.00" arrival="432.00" arrivalLane="988583021#3_3" arrivalPos="51.50" arrivalSpeed="17.49" duration="127.00" routeLength="1862.65" waitingTime="22.00" waitingCount="3" stopTime="0.00" timeLoss="55.13" rerouteNo="15" devices="tripinfo_30 fcd_30" vType="DEFAULT_VEHTYPE" speedFactor="1.18" vaporized=""/>
    <tripinfo id="21" depart="214.00" departLane="423487450#0_0" departPos="5.10" departSpeed="0.00" departDelay="0.00" arrival="451.00" arrivalLane="423487306#0_2" arrivalPos="201.87" arrivalSpeed="26.95" duration="237.00" routeLength="2635.54" waitingTime="74.00" waitingCount="2" stopTime="0.00" timeLoss="110.24" rerouteNo="18" devices="tripinfo_21 fcd_21" vType="DEFAULT_VEHTYPE" speedFactor="1.01" vaporized=""/>
    <tripinfo id="45" depart="389.00" departLane="978715537#0_0" departPos="5.10" departSpeed="0.00" departDelay="0.00" arrival="452.00" arrivalLane="746893257#0_0" arrivalPos="18.31" arrivalSpeed="22.94" duration="63.00" routeLength="545.34" waitingTime="20.00" waitingCount="1" stopTime="0.00" timeLoss="40.27" rerouteNo="3" devices="tripinfo_45 fcd_45" vType="DEFAULT_VEHTYPE" speedFactor="1.09" vaporized=""/>
    <tripinfo id="46" depart="389.00" departLane="601725845#21_0" departPos="5.10" departSpeed="0.00" departDelay="0.00" arrival="454.00" arrivalLane="1128434401_0" arrivalPos="18.81" arrivalSpeed="26.94" duration="65.00" routeLength="802.42" waitingTime="4.00" waitingCount="1" stopTime="0.00" timeLoss="21.04" rerouteNo="5" devices="tripinfo_46 fcd_46" vType="DEFAULT_VEHTYPE" speedFactor="1.00" vaporized=""/>
    <tripinfo id="31" depart="307.00" departLane="290026884_0" departPos="5.10" departSpeed="0.00" departDelay="0.00" arrival="458.00" arrivalLane="423506031#0-AddedOffRampEdge_4" arrivalPos="93.85" arrivalSpeed="17.85" duration="151.00" routeLength="1487.29" waitingTime="36.00" waitingCount="2" stopTime="0.00" timeLoss="66.47" rerouteNo="15" devices="tripinfo_31 fcd_31" vType="DEFAULT_VEHTYPE" speedFactor="1.15" vaporized=""/>
    <tripinfo id="43" depart="379.00" departLane="-746893259#2_0" departPos="5.10" departSpeed="0.00" departDelay="0.00" arrival="476.00" arrivalLane="601725848_0" arrivalPos="444.53" arrivalSpeed="21.97" duration="97.00" routeLength="1098.16" waitingTime="21.00" waitingCount="2" stopTime="0.00" timeLoss="47.44" rerouteNo="4" devices="tripinfo_43 fcd_43" vType="DEFAULT_VEHTYPE" speedFactor="1.04" vaporized=""/>
    <tripinfo id="16" depart="172.00" departLane="-268118792#23_0" departPos="5.10" departSpeed="0.00" departDelay="0.00" arrival="479.00" arrivalLane="908436862#0_3" arrivalPos="55.08" arrivalSpeed="12.99" duration="307.00" routeLength="3556.09" waitingTime="64.00" waitingCount="5" stopTime="0.00" timeLoss="111.53" rerouteNo="16" devices="tripinfo_16 fcd_16" vType="DEFAULT_VEHTYPE" speedFactor="0.88" vaporized=""/>
    <tripinfo id="25" depart="238.00" departLane="846817704#0_0" departPos="5.10" departSpeed="0.00" departDelay="0.00" arrival="486.00" arrivalLane="423487375#0-AddedOffRampEdge_0" arrivalPos="96.00" arrivalSpeed="12.92" duration="248.00" routeLength="1830.05" waitingTime="127.00" waitingCount="3" stopTime="0.00" timeLoss="152.00" rerouteNo="8" devices="tripinfo_25 fcd_25" vType="DEFAULT_VEHTYPE" speedFactor="0.87" vaporized=""/>
    <tripinfo id="28" depart="281.00" departLane="-268118792#10_0" departPos="5.10" departSpeed="0.00" departDelay="0.00" arrival="504.00" arrivalLane="104717225#0_0" arrivalPos="110.33" arrivalSpeed="24.61" duration="223.00" routeLength="3183.59" waitingTime="62.00" waitingCount="2" stopTime="0.00" timeLoss="99.54" rerouteNo="18" devices="tripinfo_28 fcd_28" vType="DEFAULT_VEHTYPE" speedFactor="1.13" vaporized=""/>
    <tripinfo id="32" depart="315.00" departLane="423487450#3_0" departPos="5.10" departSpeed="0.00" departDelay="0.00" arrival="516.00" arrivalLane="846817704#0_0" arrivalPos="43.37" arrivalSpeed="26.96" duration="201.00" routeLength="2691.96" waitingTime="39.00" waitingCount="1" stopTime="0.00" timeLoss="63.38" rerouteNo="14" devices="tripinfo_32 fcd_32" vType="DEFAULT_VEHTYPE" speedFactor="1.01" vaporized=""/>
    <tripinfo id="23" depart="224.00" departLane="423506035_0" departPos="5.10" departSpeed="0.00" departDelay="0.00" arrival="524.00" arrivalLane="962896467#0_1" arrivalPos="95.10" arrivalSpeed="19.36" duration="300.00" routeLength="3750.23" waitingTime="65.00" waitingCount="4" stopTime="0.00" timeLoss="121.23" rerouteNo="20" devices="tripinfo_23 fcd_23" vType="DEFAULT_VEHTYPE" speedFactor="0.89" vaporized=""/>
    <tripinfo id="38" depart="347.00" departLane="597528981#0_0" departPos="5.10" departSpeed="0.00" departDelay="0.00" arrival="545.00" arrivalLane="962816051_0" arrivalPos="20.28" arrivalSpeed="29.64" duration="198.00" routeLength="2263.87" waitingTime="76.00" waitingCount="4" stopTime="0.00" timeLoss="122.61" rerouteNo="11" devices="tripinfo_38 fcd_38" vType="DEFAULT_VEHTYPE" speedFactor="1.10" vaporized=""/>
    <tripinfo id="26" depart="266.00" departLane="423487462_0" departPos="5.10" departSpeed="0.00" departDelay="0.00" arrival="562.00" arrivalLane="-1128434406#2_0" arrivalPos="49.27" arrivalSpeed="24.79" duration="296.00" routeLength="3561.11" waitingTime="45.00" waitingCount="2" stopTime="0.00" timeLoss="81.18" rerouteNo="28" devices="tripinfo_26 fcd_26" vType="DEFAULT_VEHTYPE" speedFactor="0.92" vaporized=""/>
    <tripinfo id="42" depart="375.00" departLane="290026885_0" departPos="5.10" departSpeed="0.00" departDelay="0.00" arrival="575.00" arrivalLane="1128434401_0" arrivalPos="18.81" arrivalSpeed="29.56" duration="200.00" routeLength="1641.15" waitingTime="80.00" waitingCount="3" stopTime="0.00" timeLoss="108.46" rerouteNo="14" devices="tripinfo_42 fcd_42" vType="DEFAULT_VEHTYPE" speedFactor="1.09" vaporized=""/>
    <tripinfo id="34" depart="318.00" departLane="755435068_0" departPos="5.10" departSpeed="0.00" departDelay="0.00" arrival="584.00" arrivalLane="981165359#0_0" arrivalPos="450.47" arrivalSpeed="26.66" duration="266.00" routeLength="3772.05" waitingTime="65.00" waitingCount="3" stopTime="0.00" timeLoss="110.43" rerouteNo="19" devices="tripinfo_34 fcd_34" vType="DEFAULT_VEHTYPE" speedFactor="0.99" vaporized=""/>
    <tripinfo id="49" depart="400.00" departLane="104717227_0" departPos="5.10" departSpeed="0.00" departDelay="0.00" arrival="584.00" arrivalLane="423487461_0" arrivalPos="41.97" arrivalSpeed="14.68" duration="184.00" routeLength="2497.90" waitingTime="0.00" waitingCount="0" stopTime="0.00" timeLoss="26.36" rerouteNo="22" devices="tripinfo_49 fcd_49" vType="DEFAULT_VEHTYPE" speedFactor="0.85" vaporized=""/>
    <tripinfo id="35" depart="323.00" departLane="601725845#21_0" departPos="5.10" departSpeed="0.00" departDelay="0.00" arrival="600.00" arrivalLane="691318132#0_0" arrivalPos="513.54" arrivalSpeed="27.03" duration="277.00" routeLength="4135.66" waitingTime="67.00" waitingCount="3" stopTime="0.00" timeLoss="115.04" rerouteNo="17" devices="tripinfo_35 fcd_35" vType="DEFAULT_VEHTYPE" speedFactor="1.02" vaporized=""/>
    <tripinfo id="48" depart="396.00" departLane="746893259#0_0" departPos="5.10" departSpeed="0.00" departDelay="0.00" arrival="610.00" arrivalLane="1031308682_2" arrivalPos="188.42" arrivalSpeed="24.19" duration="214.00" routeLength="2655.72" waitingTime="40.00" waitingCount="3" stopTime="0.00" timeLoss="77.58" rerouteNo="13" devices="tripinfo_48 fcd_48" vType="DEFAULT_VEHTYPE" speedFactor="0.88" vaporized=""/>
    <tripinfo id="41" depart="372.00" departLane="854649126_0" departPos="5.10" departSpeed="0.00" departDelay="0.00" arrival="616.00" arrivalLane="423487421#0_0" arrivalPos="37.64" arrivalSpeed="14.40" duration="244.00" routeLength="2971.85" waitingTime="84.00" waitingCount="2" stopTime="0.00" timeLoss="105.80" rerouteNo="7" devices="tripinfo_41 fcd_41" vType="DEFAULT_VEHTYPE" speedFactor="0.96" vaporized=""/>
    <tripinfo id="40" depart="366.00" departLane="104727118#0_0" departPos="5.10" departSpeed="0.00" departDelay="0.00" arrival="617.00" arrivalLane="-601725845#9_0" arrivalPos="505.31" arrivalSpeed="22.79" duration="251.00" routeLength="3318.89" waitingTime="64.00" waitingCount="4" stopTime="0.00" timeLoss="110.36" rerouteNo="17" devices="tripinfo_40 fcd_40" vType="DEFAULT_VEHTYPE" speedFactor="1.03" vaporized=""/>
    <tripinfo id="44" depart="380.00" departLane="423487255#0_0" departPos="5.10" departSpeed="0.00" departDelay="0.00" arrival="635.00" arrivalLane="290026879_0" arrivalPos="11.99" arrivalSpeed="20.51" duration="255.00" routeLength="2133.84" waitingTime="105.00" waitingCount="5" stopTime="0.00" timeLoss="146.20" rerouteNo="18" devices="tripinfo_44 fcd_44" vType="DEFAULT_VEHTYPE" speedFactor="1.04" vaporized=""/>
    <tripinfo id="39" depart="365.00" departLane="1182933856#0_0" departPos="5.10" departSpeed="0.00" departDelay="0.00" arrival="670.00" arrivalLane="423487386#0_2" arrivalPos="49.28" arrivalSpeed="13.14" duration="305.00" routeLength="2755.57" waitingTime="85.00" waitingCount="4" stopTime="0.00" timeLoss="130.45" rerouteNo="17" devices="tripinfo_39 fcd_39" vType="DEFAULT_VEHTYPE" speedFactor="0.90" vaporized=""/>
    <tripinfo id="33" depart="318.00" departLane="423506027_0" departPos="0.20" departSpeed="0.00" departDelay="0.00" arrival="692.00" arrivalLane="908436859#0_0" arrivalPos="45.56" arrivalSpeed="17.21" duration="374.00" routeLength="3957.70" waitingTime="111.00" waitingCount="5" stopTime="0.00" timeLoss="174.87" rerouteNo="26" devices="tripinfo_33 fcd_33" vType="DEFAULT_VEHTYPE" speedFactor="1.17" vaporized=""/>
    <tripinfo id="36" depart="342.00" departLane="-15435154#5_0" departPos="5.10" departSpeed="0.00" departDelay="0.00" arrival="742.00" arrivalLane="978715537#0_0" arrivalPos="75.64" arrivalSpeed="26.22" duration="400.00" routeLength="5689.99" waitingTime="77.00" waitingCount="5" stopTime="0.00" timeLoss="146.89" rerouteNo="19" devices="tripinfo_36 fcd_36" vType="DEFAULT_VEHTYPE" speedFactor="0.97" vaporized=""/>
</tripinfos>
