<?xml version="1.0" encoding="UTF-8"?>

<!-- generated on 2023-07-18 23:19:02 by Eclipse SUMO GUI Version 1.18.0
<configuration xmlns:xsi="http://www.w3.org/2001/XMLSchema-instance" xsi:noNamespaceSchemaLocation="http://sumo.dlr.de/xsd/sumoConfiguration.xsd">

    <input>
        <net-file value="./configurations/official.net.xml"/>
        <route-files value="./configurations/./Rounds/qtest6/static_trip.rou.xml"/>
    </input>

    <output>
        <netstate-dump value="./configurations/test_dump.xml"/>
        <fcd-output value="./configurations/testTrace.xml"/>
        <summary-output value="./configurations/summary.xml"/>
        <tripinfo-output value="./configurations/trips.trips.xml"/>
        <statistic-output value="./configurations/stats_output.xml"/>
    </output>

    <time>
        <begin value="0"/>
        <end value="200000"/>
    </time>

    <traci_server>
        <remote-port value="56572"/>
    </traci_server>

    <gui_only>
        <quit-on-end value="true"/>
    </gui_only>

</configuration>
-->

<tripinfos xmlns:xsi="http://www.w3.org/2001/XMLSchema-instance" xsi:noNamespaceSchemaLocation="http://sumo.dlr.de/xsd/tripinfo_file.xsd">
    <tripinfo id="3" depart="27.00" departLane="423487257#0_0" departPos="5.10" departSpeed="0.00" departDelay="0.00" arrival="66.00" arrivalLane="104717227_0" arrivalPos="150.39" arrivalSpeed="23.67" duration="39.00" routeLength="199.31" waitingTime="17.00" waitingCount="1" stopTime="0.00" timeLoss="29.81" rerouteNo="1" devices="tripinfo_3 fcd_3" vType="DEFAULT_VEHTYPE" speedFactor="1.08" vaporized=""/>
    <tripinfo id="0" depart="1.00" departLane="746893258#0_0" departPos="5.10" departSpeed="0.00" departDelay="0.00" arrival="85.00" arrivalLane="601725848_0" arrivalPos="444.53" arrivalSpeed="23.06" duration="84.00" routeLength="1084.85" waitingTime="12.00" waitingCount="2" stopTime="0.00" timeLoss="36.06" rerouteNo="4" devices="tripinfo_0 fcd_0" vType="DEFAULT_VEHTYPE" speedFactor="1.06" vaporized=""/>
    <tripinfo id="1" depart="4.00" departLane="597528970#2_0" departPos="5.10" departSpeed="0.00" departDelay="0.00" arrival="101.00" arrivalLane="746893258#0_0" arrivalPos="36.96" arrivalSpeed="20.57" duration="97.00" routeLength="1145.39" waitingTime="11.00" waitingCount="1" stopTime="0.00" timeLoss="35.65" rerouteNo="8" devices="tripinfo_1 fcd_1" vType="DEFAULT_VEHTYPE" speedFactor="0.94" vaporized=""/>
    <tripinfo id="8" depart="47.00" departLane="-755435067#3_0" departPos="5.10" departSpeed="0.00" departDelay="0.00" arrival="114.00" arrivalLane="-746893259#2_0" arrivalPos="55.88" arrivalSpeed="20.51" duration="67.00" routeLength="884.44" waitingTime="5.00" waitingCount="1" stopTime="0.00" timeLoss="22.04" rerouteNo="7" devices="tripinfo_8 fcd_8" vType="DEFAULT_VEHTYPE" speedFactor="0.94" vaporized=""/>
    <tripinfo id="5" depart="38.00" departLane="908435481#0_0" departPos="5.10" departSpeed="0.00" departDelay="0.00" arrival="141.00" arrivalLane="962896467#4_1" arrivalPos="258.90" arrivalSpeed="22.55" duration="103.00" routeLength="687.91" waitingTime="44.00" waitingCount="2" stopTime="0.00" timeLoss="61.50" rerouteNo="5" devices="tripinfo_5 fcd_5" vType="DEFAULT_VEHTYPE" speedFactor="0.83" vaporized=""/>
    <tripinfo id="2" depart="16.00" departLane="908436862#0_0" departPos="5.10" departSpeed="0.00" departDelay="0.00" arrival="167.00" arrivalLane="423487259#0_0" arrivalPos="438.80" arrivalSpeed="27.72" duration="151.00" routeLength="2545.20" waitingTime="7.00" waitingCount="1" stopTime="0.00" timeLoss="25.91" rerouteNo="12" devices="tripinfo_2 fcd_2" vType="DEFAULT_VEHTYPE" speedFactor="1.01" vaporized=""/>
    <tripinfo id="4" depart="31.00" departLane="-1128434401_0" departPos="5.10" departSpeed="0.00" departDelay="0.00" arrival="169.00" arrivalLane="423487444#0_3" arrivalPos="89.98" arrivalSpeed="15.23" duration="138.00" routeLength="1510.99" waitingTime="24.00" waitingCount="1" stopTime="0.00" timeLoss="48.95" rerouteNo="9" devices="tripinfo_4 fcd_4" vType="DEFAULT_VEHTYPE" speedFactor="1.03" vaporized=""/>
    <tripinfo id="9" depart="47.00" departLane="908435480#0_0" departPos="5.10" departSpeed="0.00" departDelay="0.00" arrival="193.00" arrivalLane="-755435067#3_0" arrivalPos="40.36" arrivalSpeed="18.15" duration="146.00" routeLength="1637.83" waitingTime="24.00" waitingCount="3" stopTime="0.00" timeLoss="56.77" rerouteNo="11" devices="tripinfo_9 fcd_9" vType="DEFAULT_VEHTYPE" speedFactor="0.86" vaporized=""/>
    <tripinfo id="6" depart="47.00" departLane="423487294_0" departPos="5.10" departSpeed="0.00" departDelay="0.00" arrival="203.00" arrivalLane="985219577_0" arrivalPos="103.34" arrivalSpeed="22.34" duration="156.00" routeLength="2367.08" waitingTime="9.00" waitingCount="2" stopTime="0.00" timeLoss="46.73" rerouteNo="17" devices="tripinfo_6 fcd_6" vType="DEFAULT_VEHTYPE" speedFactor="1.05" vaporized=""/>
    <tripinfo id="7" depart="47.00" departLane="1128434401_0" departPos="5.10" departSpeed="0.00" departDelay="0.00" arrival="236.00" arrivalLane="423487299#0_0" arrivalPos="46.39" arrivalSpeed="12.83" duration="189.00" routeLength="1659.20" waitingTime="62.00" waitingCount="4" stopTime="0.00" timeLoss="94.71" rerouteNo="14" devices="tripinfo_7 fcd_7" vType="DEFAULT_VEHTYPE" speedFactor="0.89" vaporized=""/>
</tripinfos>
