<?xml version="1.0" encoding="UTF-8"?>

<!-- generated on 2023-07-15 23:20:13 by Eclipse SUMO sumo Version v1_17_0+0908-fc813c74af8
<configuration xmlns:xsi="http://www.w3.org/2001/XMLSchema-instance" xsi:noNamespaceSchemaLocation="http://sumo.dlr.de/xsd/sumoConfiguration.xsd">

    <input>
        <net-file value="./configurations/osm.net.xml"/>
        <route-files value="./configurations/./Rounds/qtest2/static_trip.rou.xml"/>
    </input>

    <output>
        <netstate-dump value="./configurations/test_dump.xml"/>
        <fcd-output value="./configurations/testTrace.xml"/>
        <summary-output value="./configurations/summary.xml"/>
        <tripinfo-output value="./configurations/trips.trips.xml"/>
        <statistic-output value="./configurations/stats_output.xml"/>
    </output>

    <time>
        <begin value="0"/>
        <end value="200000"/>
    </time>

    <traci_server>
        <remote-port value="56689"/>
    </traci_server>

    <gui_only>
        <quit-on-end value="true"/>
    </gui_only>

</configuration>
-->

<tripinfos xmlns:xsi="http://www.w3.org/2001/XMLSchema-instance" xsi:noNamespaceSchemaLocation="http://sumo.dlr.de/xsd/tripinfo_file.xsd">
    <tripinfo id="39" depart="87.00" departLane="423487463_0" departPos="5.10" departSpeed="0.00" departDelay="0.00" arrival="114.00" arrivalLane="423487447#2_2" arrivalPos="172.61" arrivalSpeed="14.02" duration="27.00" routeLength="235.32" waitingTime="0.00" waitingCount="0" stopTime="0.00" timeLoss="9.61" rerouteNo="1" devices="tripinfo_39 fcd_39" vType="DEFAULT_VEHTYPE" speedFactor="0.90" vaporized=""/>
    <tripinfo id="6" depart="6.00" departLane="597602686#0_0" departPos="5.10" departSpeed="0.00" departDelay="0.00" arrival="118.00" arrivalLane="981165359#0_0" arrivalPos="450.47" arrivalSpeed="28.59" duration="112.00" routeLength="1747.63" waitingTime="20.00" waitingCount="2" stopTime="0.00" timeLoss="49.80" rerouteNo="6" devices="tripinfo_6 fcd_6" vType="DEFAULT_VEHTYPE" speedFactor="1.05" vaporized=""/>
    <tripinfo id="20" depart="36.00" departLane="-15389730#20_0" departPos="5.10" departSpeed="0.00" departDelay="0.00" arrival="121.00" arrivalLane="104717227_0" arrivalPos="150.40" arrivalSpeed="22.35" duration="85.00" routeLength="1005.23" waitingTime="26.00" waitingCount="1" stopTime="0.00" timeLoss="39.71" rerouteNo="1" devices="tripinfo_20 fcd_20" vType="DEFAULT_VEHTYPE" speedFactor="1.02" vaporized=""/>
    <tripinfo id="9" depart="8.00" departLane="1081590615_0" departPos="5.10" departSpeed="0.00" departDelay="0.00" arrival="136.00" arrivalLane="312824882#3_0" arrivalPos="92.95" arrivalSpeed="23.66" duration="128.00" routeLength="1281.90" waitingTime="45.00" waitingCount="2" stopTime="0.00" timeLoss="66.36" rerouteNo="10" devices="tripinfo_9 fcd_9" vType="DEFAULT_VEHTYPE" speedFactor="0.86" vaporized=""/>
    <tripinfo id="14" depart="15.00" departLane="442372090-AddedOffRampEdge_0" departPos="5.10" departSpeed="0.00" departDelay="0.00" arrival="138.00" arrivalLane="544695193_0" arrivalPos="26.08" arrivalSpeed="15.27" duration="123.00" routeLength="960.29" waitingTime="43.00" waitingCount="2" stopTime="0.00" timeLoss="60.95" rerouteNo="7" devices="tripinfo_14 fcd_14" vType="DEFAULT_VEHTYPE" speedFactor="0.99" vaporized=""/>
    <tripinfo id="16" depart="19.00" departLane="846813573#1_0" departPos="1.90" departSpeed="0.00" departDelay="0.00" arrival="138.00" arrivalLane="-746893261#1_0" arrivalPos="285.85" arrivalSpeed="18.83" duration="119.00" routeLength="1357.29" waitingTime="2.00" waitingCount="1" stopTime="0.00" timeLoss="33.48" rerouteNo="9" devices="tripinfo_16 fcd_16" vType="DEFAULT_VEHTYPE" speedFactor="0.88" vaporized=""/>
    <tripinfo id="51" depart="110.00" departLane="1013862585#7_0" departPos="5.10" departSpeed="0.00" departDelay="0.00" arrival="139.00" arrivalLane="423487442#0_3" arrivalPos="48.71" arrivalSpeed="17.89" duration="29.00" routeLength="467.03" waitingTime="0.00" waitingCount="0" stopTime="0.00" timeLoss="9.38" rerouteNo="2" devices="tripinfo_51 fcd_51" vType="DEFAULT_VEHTYPE" speedFactor="1.17" vaporized=""/>
    <tripinfo id="0" depart="0.00" departLane="978715536_0" departPos="5.10" departSpeed="0.00" departDelay="0.00" arrival="147.00" arrivalLane="-846855219#3_0" arrivalPos="1321.07" arrivalSpeed="28.33" duration="147.00" routeLength="2887.15" waitingTime="10.00" waitingCount="1" stopTime="0.00" timeLoss="38.56" rerouteNo="15" devices="tripinfo_0 fcd_0" vType="DEFAULT_VEHTYPE" speedFactor="1.06" vaporized=""/>
    <tripinfo id="1" depart="2.00" departLane="755435068_0" departPos="5.10" departSpeed="0.00" departDelay="0.00" arrival="149.00" arrivalLane="423487307#0_2" arrivalPos="223.73" arrivalSpeed="25.29" duration="147.00" routeLength="2132.94" waitingTime="16.00" waitingCount="2" stopTime="0.00" timeLoss="45.81" rerouteNo="12" devices="tripinfo_1 fcd_1" vType="DEFAULT_VEHTYPE" speedFactor="0.94" vaporized=""/>
    <tripinfo id="11" depart="9.00" departLane="442372081#5_0" departPos="5.10" departSpeed="0.00" departDelay="0.00" arrival="149.00" arrivalLane="423487256#0_1" arrivalPos="41.39" arrivalSpeed="27.44" duration="140.00" routeLength="1999.39" waitingTime="24.00" waitingCount="2" stopTime="0.00" timeLoss="53.33" rerouteNo="11" devices="tripinfo_11 fcd_11" vType="DEFAULT_VEHTYPE" speedFactor="1.03" vaporized=""/>
    <tripinfo id="28" depart="58.00" departLane="423487305#0_0" departPos="5.10" departSpeed="0.00" departDelay="0.00" arrival="156.00" arrivalLane="978715536_2" arrivalPos="18.56" arrivalSpeed="29.32" duration="98.00" routeLength="1292.15" waitingTime="15.00" waitingCount="3" stopTime="0.00" timeLoss="54.48" rerouteNo="11" devices="tripinfo_28 fcd_28" vType="DEFAULT_VEHTYPE" speedFactor="1.13" vaporized=""/>
    <tripinfo id="23" depart="48.00" departLane="808587433#0_0" departPos="5.10" departSpeed="0.00" departDelay="0.00" arrival="162.00" arrivalLane="423487447#2_0" arrivalPos="172.61" arrivalSpeed="13.66" duration="114.00" routeLength="1462.16" waitingTime="12.00" waitingCount="1" stopTime="0.00" timeLoss="36.73" rerouteNo="9" devices="tripinfo_23 fcd_23" vType="DEFAULT_VEHTYPE" speedFactor="0.89" vaporized=""/>
    <tripinfo id="58" depart="130.00" departLane="981165358#0_0" departPos="5.10" departSpeed="0.00" departDelay="0.00" arrival="170.00" arrivalLane="968816561#0_0" arrivalPos="163.35" arrivalSpeed="27.18" duration="40.00" routeLength="352.07" waitingTime="13.00" waitingCount="1" stopTime="0.00" timeLoss="26.85" rerouteNo="3" devices="tripinfo_58 fcd_58" vType="DEFAULT_VEHTYPE" speedFactor="1.02" vaporized=""/>
    <tripinfo id="12" depart="9.00" departLane="442372081#0_0" departPos="5.10" departSpeed="0.00" departDelay="0.00" arrival="171.00" arrivalLane="601725845#0_0" arrivalPos="505.35" arrivalSpeed="23.21" duration="162.00" routeLength="2323.40" waitingTime="29.00" waitingCount="2" stopTime="0.00" timeLoss="60.18" rerouteNo="7" devices="tripinfo_12 fcd_12" vType="DEFAULT_VEHTYPE" speedFactor="1.05" vaporized=""/>
    <tripinfo id="35" depart="80.00" departLane="1081590611-AddedOffRampEdge_0" departPos="5.10" departSpeed="0.00" departDelay="0.00" arrival="171.00" arrivalLane="423487448#0_2" arrivalPos="56.24" arrivalSpeed="14.76" duration="91.00" routeLength="1005.16" waitingTime="15.00" waitingCount="3" stopTime="0.00" timeLoss="37.30" rerouteNo="11" devices="tripinfo_35 fcd_35" vType="DEFAULT_VEHTYPE" speedFactor="1.02" vaporized=""/>
    <tripinfo id="73" depart="161.00" departLane="423487419#2-AddedOffRampEdge_0" departPos="5.10" departSpeed="0.00" departDelay="0.00" arrival="171.00" arrivalLane="423487419#2-AddedOffRampEdge_0" arrivalPos="96.00" arrivalSpeed="16.15" duration="10.00" routeLength="90.90" waitingTime="0.00" waitingCount="0" stopTime="0.00" timeLoss="4.17" rerouteNo="0" devices="tripinfo_73 fcd_73" vType="DEFAULT_VEHTYPE" speedFactor="1.06" vaporized=""/>
    <tripinfo id="41" depart="88.00" departLane="423487434#0_0" departPos="0.20" departSpeed="0.00" departDelay="0.00" arrival="173.00" arrivalLane="-968816562#41_0" arrivalPos="533.80" arrivalSpeed="20.70" duration="85.00" routeLength="1176.09" waitingTime="0.00" waitingCount="0" stopTime="0.00" timeLoss="15.15" rerouteNo="9" devices="tripinfo_41 fcd_41" vType="DEFAULT_VEHTYPE" speedFactor="0.96" vaporized=""/>
    <tripinfo id="8" depart="7.00" departLane="478554548#0_0" departPos="5.10" departSpeed="0.00" departDelay="0.00" arrival="175.00" arrivalLane="-268118792#13_1" arrivalPos="82.57" arrivalSpeed="25.36" duration="168.00" routeLength="2210.29" waitingTime="25.00" waitingCount="2" stopTime="0.00" timeLoss="47.45" rerouteNo="16" devices="tripinfo_8 fcd_8" vType="DEFAULT_VEHTYPE" speedFactor="0.94" vaporized=""/>
    <tripinfo id="40" depart="87.00" departLane="423487429#0_0" departPos="5.10" departSpeed="0.00" departDelay="0.00" arrival="175.00" arrivalLane="601725845#21_0" arrivalPos="12.93" arrivalSpeed="7.09" duration="88.00" routeLength="949.36" waitingTime="2.00" waitingCount="1" stopTime="0.00" timeLoss="26.70" rerouteNo="5" devices="tripinfo_40 fcd_40" vType="DEFAULT_VEHTYPE" speedFactor="1.03" vaporized=""/>
    <tripinfo id="31" depart="65.00" departLane="1031308683#0_0" departPos="5.10" departSpeed="0.00" departDelay="0.00" arrival="191.00" arrivalLane="-15440930#4_0" arrivalPos="111.34" arrivalSpeed="14.91" duration="126.00" routeLength="2487.60" waitingTime="2.00" waitingCount="1" stopTime="0.00" timeLoss="37.21" rerouteNo="10" devices="tripinfo_31 fcd_31" vType="DEFAULT_VEHTYPE" speedFactor="1.15" vaporized=""/>
    <tripinfo id="53" depart="111.00" departLane="268118792#14_0" departPos="5.10" departSpeed="0.00" departDelay="0.00" arrival="193.00" arrivalLane="1130568089#0_2" arrivalPos="56.32" arrivalSpeed="16.05" duration="82.00" routeLength="987.34" waitingTime="18.00" waitingCount="1" stopTime="0.00" timeLoss="40.31" rerouteNo="4" devices="tripinfo_53 fcd_53" vType="DEFAULT_VEHTYPE" speedFactor="1.10" vaporized=""/>
    <tripinfo id="29" depart="61.00" departLane="-683976549#1_0" departPos="5.10" departSpeed="0.00" departDelay="0.00" arrival="196.00" arrivalLane="683889359#8_0" arrivalPos="413.52" arrivalSpeed="19.55" duration="135.00" routeLength="1584.47" waitingTime="26.00" waitingCount="2" stopTime="0.00" timeLoss="57.12" rerouteNo="5" devices="tripinfo_29 fcd_29" vType="DEFAULT_VEHTYPE" speedFactor="0.93" vaporized=""/>
    <tripinfo id="61" depart="141.00" departLane="423487304#0_0" departPos="5.10" departSpeed="0.00" departDelay="0.00" arrival="200.00" arrivalLane="962816051_1" arrivalPos="20.28" arrivalSpeed="30.40" duration="59.00" routeLength="825.05" waitingTime="5.00" waitingCount="1" stopTime="0.00" timeLoss="28.97" rerouteNo="5" devices="tripinfo_61 fcd_61" vType="DEFAULT_VEHTYPE" speedFactor="1.12" vaporized=""/>
    <tripinfo id="3" depart="4.00" departLane="312826086_0" departPos="5.10" departSpeed="0.00" departDelay="0.00" arrival="204.00" arrivalLane="423487429#0_0" arrivalPos="318.98" arrivalSpeed="16.86" duration="200.00" routeLength="1931.51" waitingTime="70.00" waitingCount="3" stopTime="0.00" timeLoss="113.31" rerouteNo="13" devices="tripinfo_3 fcd_3" vType="DEFAULT_VEHTYPE" speedFactor="1.08" vaporized=""/>
    <tripinfo id="18" depart="30.00" departLane="268118792#0_0" departPos="5.10" departSpeed="0.00" departDelay="0.00" arrival="205.00" arrivalLane="908435481#0_0" arrivalPos="54.39" arrivalSpeed="13.57" duration="175.00" routeLength="2456.20" waitingTime="40.00" waitingCount="2" stopTime="0.00" timeLoss="74.15" rerouteNo="14" devices="tripinfo_18 fcd_18" vType="DEFAULT_VEHTYPE" speedFactor="0.94" vaporized=""/>
    <tripinfo id="24" depart="51.00" departLane="968816562#0_0" departPos="5.10" departSpeed="0.00" departDelay="0.00" arrival="208.00" arrivalLane="423487452#3_2" arrivalPos="84.63" arrivalSpeed="12.33" duration="157.00" routeLength="1987.19" waitingTime="13.00" waitingCount="1" stopTime="0.00" timeLoss="36.06" rerouteNo="6" devices="tripinfo_24 fcd_24" vType="DEFAULT_VEHTYPE" speedFactor="0.83" vaporized=""/>
    <tripinfo id="17" depart="27.00" departLane="988583021#3_0" departPos="5.10" departSpeed="0.00" departDelay="0.00" arrival="212.00" arrivalLane="-1128434402#6_1" arrivalPos="238.22" arrivalSpeed="25.60" duration="185.00" routeLength="1890.89" waitingTime="48.00" waitingCount="4" stopTime="0.00" timeLoss="77.64" rerouteNo="14" devices="tripinfo_17 fcd_17" vType="DEFAULT_VEHTYPE" speedFactor="0.94" vaporized=""/>
    <tripinfo id="82" depart="183.00" departLane="746893260_0" departPos="5.10" departSpeed="0.00" departDelay="0.00" arrival="217.00" arrivalLane="1081590614#0_1" arrivalPos="188.82" arrivalSpeed="22.53" duration="34.00" routeLength="492.80" waitingTime="0.00" waitingCount="0" stopTime="0.00" timeLoss="10.57" rerouteNo="1" devices="tripinfo_82 fcd_82" vType="DEFAULT_VEHTYPE" speedFactor="1.02" vaporized=""/>
    <tripinfo id="47" depart="102.00" departLane="423487255#0_0" departPos="5.10" departSpeed="0.00" departDelay="0.00" arrival="221.00" arrivalLane="-755435068_0" arrivalPos="28.31" arrivalSpeed="18.62" duration="119.00" routeLength="1598.06" waitingTime="15.00" waitingCount="2" stopTime="0.00" timeLoss="39.78" rerouteNo="13" devices="tripinfo_47 fcd_47" vType="DEFAULT_VEHTYPE" speedFactor="0.90" vaporized=""/>
    <tripinfo id="22" depart="46.00" departLane="908436859#0_0" departPos="5.10" departSpeed="0.00" departDelay="0.00" arrival="230.00" arrivalLane="15428593#0_0" arrivalPos="302.73" arrivalSpeed="21.54" duration="184.00" routeLength="2386.51" waitingTime="28.00" waitingCount="2" stopTime="0.00" timeLoss="63.54" rerouteNo="16" devices="tripinfo_22 fcd_22" vType="DEFAULT_VEHTYPE" speedFactor="0.97" vaporized=""/>
    <tripinfo id="54" depart="115.00" departLane="746893258#0_0" departPos="5.10" departSpeed="0.00" departDelay="0.00" arrival="237.00" arrivalLane="908436862#0_3" arrivalPos="55.08" arrivalSpeed="14.90" duration="122.00" routeLength="1807.41" waitingTime="14.00" waitingCount="1" stopTime="0.00" timeLoss="37.45" rerouteNo="11" devices="tripinfo_54 fcd_54" vType="DEFAULT_VEHTYPE" speedFactor="1.00" vaporized=""/>
    <tripinfo id="55" depart="124.00" departLane="746893257#0_0" departPos="5.10" departSpeed="0.00" departDelay="4.00" arrival="241.00" arrivalLane="423487416#0-AddedOffRampEdge_0" arrivalPos="96.00" arrivalSpeed="14.67" duration="117.00" routeLength="1366.27" waitingTime="25.00" waitingCount="2" stopTime="0.00" timeLoss="46.58" rerouteNo="14" devices="tripinfo_55 fcd_55" vType="DEFAULT_VEHTYPE" speedFactor="1.00" vaporized=""/>
    <tripinfo id="4" depart="5.00" departLane="423505994#0_0" departPos="5.10" departSpeed="0.00" departDelay="0.00" arrival="247.00" arrivalLane="1031308683#0_2" arrivalPos="26.94" arrivalSpeed="5.90" duration="242.00" routeLength="3328.44" waitingTime="34.00" waitingCount="3" stopTime="0.00" timeLoss="85.05" rerouteNo="21" devices="tripinfo_4 fcd_4" vType="DEFAULT_VEHTYPE" speedFactor="1.03" vaporized=""/>
    <tripinfo id="60" depart="138.00" departLane="-15438674#3_0" departPos="5.10" departSpeed="0.00" departDelay="0.00" arrival="247.00" arrivalLane="423487450#3_3" arrivalPos="170.55" arrivalSpeed="16.87" duration="109.00" routeLength="1669.00" waitingTime="0.00" waitingCount="0" stopTime="0.00" timeLoss="20.33" rerouteNo="8" devices="tripinfo_60 fcd_60" vType="DEFAULT_VEHTYPE" speedFactor="1.08" vaporized=""/>
    <tripinfo id="21" depart="37.00" departLane="423487304#0_0" departPos="5.10" departSpeed="0.00" departDelay="0.00" arrival="258.00" arrivalLane="846817704#0_2" arrivalPos="43.37" arrivalSpeed="26.99" duration="221.00" routeLength="3243.22" waitingTime="49.00" waitingCount="3" stopTime="0.00" timeLoss="98.90" rerouteNo="18" devices="tripinfo_21 fcd_21" vType="DEFAULT_VEHTYPE" speedFactor="1.01" vaporized=""/>
    <tripinfo id="66" depart="147.00" departLane="-683889359#6_0" departPos="5.10" departSpeed="0.00" departDelay="0.00" arrival="260.00" arrivalLane="104727118#0_0" arrivalPos="260.37" arrivalSpeed="25.18" duration="113.00" routeLength="1556.88" waitingTime="11.00" waitingCount="2" stopTime="0.00" timeLoss="38.89" rerouteNo="7" devices="tripinfo_66 fcd_66" vType="DEFAULT_VEHTYPE" speedFactor="0.91" vaporized=""/>
    <tripinfo id="2" depart="3.00" departLane="968816564#0_0" departPos="5.10" departSpeed="0.00" departDelay="0.00" arrival="262.00" arrivalLane="808587436#0_0" arrivalPos="775.99" arrivalSpeed="15.24" duration="259.00" routeLength="3379.19" waitingTime="55.00" waitingCount="2" stopTime="0.00" timeLoss="92.40" rerouteNo="8" devices="tripinfo_2 fcd_2" vType="DEFAULT_VEHTYPE" speedFactor="1.01" vaporized=""/>
    <tripinfo id="101" depart="236.00" departLane="846857039#0_0" departPos="5.10" departSpeed="0.00" departDelay="0.00" arrival="265.00" arrivalLane="987713877#1_3" arrivalPos="86.71" arrivalSpeed="14.02" duration="29.00" routeLength="319.11" waitingTime="0.00" waitingCount="0" stopTime="0.00" timeLoss="8.05" rerouteNo="3" devices="tripinfo_101 fcd_101" vType="DEFAULT_VEHTYPE" speedFactor="0.96" vaporized=""/>
    <tripinfo id="43" depart="90.00" departLane="104717225#0_0" departPos="5.10" departSpeed="0.00" departDelay="0.00" arrival="268.00" arrivalLane="962816052#0_0" arrivalPos="38.54" arrivalSpeed="28.38" duration="178.00" routeLength="2087.80" waitingTime="59.00" waitingCount="2" stopTime="0.00" timeLoss="88.41" rerouteNo="15" devices="tripinfo_43 fcd_43" vType="DEFAULT_VEHTYPE" speedFactor="1.04" vaporized=""/>
    <tripinfo id="45" depart="97.00" departLane="423506035_0" departPos="5.10" departSpeed="0.00" departDelay="0.00" arrival="271.00" arrivalLane="981165359#0_0" arrivalPos="450.47" arrivalSpeed="29.99" duration="174.00" routeLength="1681.71" waitingTime="67.00" waitingCount="3" stopTime="0.00" timeLoss="113.66" rerouteNo="7" devices="tripinfo_45 fcd_45" vType="DEFAULT_VEHTYPE" speedFactor="1.09" vaporized=""/>
    <tripinfo id="50" depart="108.00" departLane="1072974806_0" departPos="5.10" departSpeed="0.00" departDelay="0.00" arrival="271.00" arrivalLane="968816562#28_0" arrivalPos="533.77" arrivalSpeed="18.30" duration="163.00" routeLength="2290.35" waitingTime="20.00" waitingCount="1" stopTime="0.00" timeLoss="47.61" rerouteNo="6" devices="tripinfo_50 fcd_50" vType="DEFAULT_VEHTYPE" speedFactor="0.85" vaporized=""/>
    <tripinfo id="15" depart="18.00" departLane="-15458116_0" departPos="5.10" departSpeed="0.00" departDelay="0.00" arrival="272.00" arrivalLane="988583021#3_0" arrivalPos="51.50" arrivalSpeed="14.45" duration="254.00" routeLength="2509.03" waitingTime="79.00" waitingCount="3" stopTime="0.00" timeLoss="111.31" rerouteNo="12" devices="tripinfo_15 fcd_15" vType="DEFAULT_VEHTYPE" speedFactor="0.93" vaporized=""/>
    <tripinfo id="76" depart="167.00" departLane="1013862585#7_0" departPos="5.10" departSpeed="0.00" departDelay="0.00" arrival="273.00" arrivalLane="988583021#0_4" arrivalPos="72.91" arrivalSpeed="15.51" duration="106.00" routeLength="1189.99" waitingTime="16.00" waitingCount="2" stopTime="0.00" timeLoss="37.39" rerouteNo="11" devices="tripinfo_76 fcd_76" vType="DEFAULT_VEHTYPE" speedFactor="1.03" vaporized=""/>
    <tripinfo id="57" depart="128.00" departLane="423487419#0_0" departPos="5.10" departSpeed="0.00" departDelay="0.00" arrival="274.00" arrivalLane="423487444#0-AddedOffRampEdge_0" arrivalPos="96.08" arrivalSpeed="17.58" duration="146.00" routeLength="1424.19" waitingTime="33.00" waitingCount="3" stopTime="0.00" timeLoss="65.56" rerouteNo="16" devices="tripinfo_57 fcd_57" vType="DEFAULT_VEHTYPE" speedFactor="1.14" vaporized=""/>
    <tripinfo id="10" depart="8.00" departLane="423506029#0_0" departPos="5.10" departSpeed="0.00" departDelay="0.00" arrival="275.00" arrivalLane="908435482#0_0" arrivalPos="90.89" arrivalSpeed="16.61" duration="267.00" routeLength="2907.32" waitingTime="86.00" waitingCount="5" stopTime="0.00" timeLoss="129.73" rerouteNo="25" devices="tripinfo_10 fcd_10" vType="DEFAULT_VEHTYPE" speedFactor="1.09" vaporized=""/>
    <tripinfo id="67" depart="150.00" departLane="908435482#0_0" departPos="5.10" departSpeed="0.00" departDelay="0.00" arrival="275.00" arrivalLane="962816051_1" arrivalPos="20.28" arrivalSpeed="24.80" duration="125.00" routeLength="1116.22" waitingTime="42.00" waitingCount="2" stopTime="0.00" timeLoss="65.73" rerouteNo="8" devices="tripinfo_67 fcd_67" vType="DEFAULT_VEHTYPE" speedFactor="0.91" vaporized=""/>
    <tripinfo id="33" depart="73.00" departLane="978715537#0_0" departPos="5.10" departSpeed="0.00" departDelay="0.00" arrival="277.00" arrivalLane="268118792#14_1" arrivalPos="637.58" arrivalSpeed="32.46" duration="204.00" routeLength="2403.64" waitingTime="58.00" waitingCount="3" stopTime="0.00" timeLoss="121.12" rerouteNo="8" devices="tripinfo_33 fcd_33" vType="DEFAULT_VEHTYPE" speedFactor="1.17" vaporized=""/>
    <tripinfo id="37" depart="82.00" departLane="-755435067#3_0" departPos="5.10" departSpeed="0.00" departDelay="0.00" arrival="277.00" arrivalLane="1026416106#0_0" arrivalPos="567.63" arrivalSpeed="31.89" duration="195.00" routeLength="3084.44" waitingTime="17.00" waitingCount="2" stopTime="0.00" timeLoss="60.84" rerouteNo="20" devices="tripinfo_37 fcd_37" vType="DEFAULT_VEHTYPE" speedFactor="1.18" vaporized=""/>
    <tripinfo id="27" depart="55.00" departLane="15422879#0_0" departPos="5.10" departSpeed="0.00" departDelay="0.00" arrival="280.00" arrivalLane="846857036#3_1" arrivalPos="63.94" arrivalSpeed="26.06" duration="225.00" routeLength="2378.37" waitingTime="60.00" waitingCount="2" stopTime="0.00" timeLoss="95.64" rerouteNo="11" devices="tripinfo_27 fcd_27" vType="DEFAULT_VEHTYPE" speedFactor="0.95" vaporized=""/>
    <tripinfo id="49" depart="107.00" departLane="1081590610#0_0" departPos="5.10" departSpeed="0.00" departDelay="0.00" arrival="280.00" arrivalLane="423506031#0_3" arrivalPos="32.72" arrivalSpeed="12.20" duration="173.00" routeLength="1262.96" waitingTime="58.00" waitingCount="2" stopTime="0.00" timeLoss="84.60" rerouteNo="15" devices="tripinfo_49 fcd_49" vType="DEFAULT_VEHTYPE" speedFactor="0.85" vaporized=""/>
    <tripinfo id="105" depart="263.00" departLane="423487392#0_0" departPos="5.10" departSpeed="0.00" departDelay="0.00" arrival="280.00" arrivalLane="423487416#0-AddedOffRampEdge_0" arrivalPos="96.00" arrivalSpeed="15.93" duration="17.00" routeLength="208.92" waitingTime="0.00" waitingCount="0" stopTime="0.00" timeLoss="4.44" rerouteNo="2" devices="tripinfo_105 fcd_105" vType="DEFAULT_VEHTYPE" speedFactor="1.07" vaporized=""/>
    <tripinfo id="59" depart="133.00" departLane="-755435067#3_0" departPos="5.10" departSpeed="0.00" departDelay="0.00" arrival="281.00" arrivalLane="601725845#0_0" arrivalPos="505.35" arrivalSpeed="21.07" duration="148.00" routeLength="1946.21" waitingTime="36.00" waitingCount="1" stopTime="0.00" timeLoss="56.89" rerouteNo="4" devices="tripinfo_59 fcd_59" vType="DEFAULT_VEHTYPE" speedFactor="0.97" vaporized=""/>
    <tripinfo id="79" depart="176.00" departLane="423487436#0_0" departPos="0.20" departSpeed="0.00" departDelay="0.00" arrival="291.00" arrivalLane="597602687#0_0" arrivalPos="88.21" arrivalSpeed="19.50" duration="115.00" routeLength="2001.91" waitingTime="13.00" waitingCount="1" stopTime="0.00" timeLoss="37.58" rerouteNo="7" devices="tripinfo_79 fcd_79" vType="DEFAULT_VEHTYPE" speedFactor="1.09" vaporized=""/>
    <tripinfo id="26" depart="54.00" departLane="597602686#0_0" departPos="5.10" departSpeed="0.00" departDelay="0.00" arrival="292.00" arrivalLane="287525280#0_0" arrivalPos="554.60" arrivalSpeed="24.59" duration="238.00" routeLength="3218.83" waitingTime="51.00" waitingCount="2" stopTime="0.00" timeLoss="81.32" rerouteNo="15" devices="tripinfo_26 fcd_26" vType="DEFAULT_VEHTYPE" speedFactor="0.92" vaporized=""/>
    <tripinfo id="52" depart="111.00" departLane="683889359#8_0" departPos="5.10" departSpeed="0.00" departDelay="0.00" arrival="295.00" arrivalLane="601725845#21_0" arrivalPos="12.93" arrivalSpeed="8.03" duration="184.00" routeLength="2267.18" waitingTime="31.00" waitingCount="3" stopTime="0.00" timeLoss="80.61" rerouteNo="10" devices="tripinfo_52 fcd_52" vType="DEFAULT_VEHTYPE" speedFactor="1.02" vaporized=""/>
    <tripinfo id="5" depart="5.00" departLane="981165359#0_0" departPos="5.10" departSpeed="0.00" departDelay="0.00" arrival="296.00" arrivalLane="1081590611_1" arrivalPos="47.31" arrivalSpeed="18.19" duration="291.00" routeLength="3695.07" waitingTime="38.00" waitingCount="4" stopTime="0.00" timeLoss="86.07" rerouteNo="20" devices="tripinfo_5 fcd_5" vType="DEFAULT_VEHTYPE" speedFactor="0.83" vaporized=""/>
    <tripinfo id="48" depart="103.00" departLane="908435480#0_0" departPos="5.10" departSpeed="0.00" departDelay="0.00" arrival="296.00" arrivalLane="1128434407#0_0" arrivalPos="45.97" arrivalSpeed="24.15" duration="193.00" routeLength="2718.75" waitingTime="44.00" waitingCount="2" stopTime="0.00" timeLoss="73.55" rerouteNo="13" devices="tripinfo_48 fcd_48" vType="DEFAULT_VEHTYPE" speedFactor="0.88" vaporized=""/>
    <tripinfo id="68" depart="150.00" departLane="683889359#8_0" departPos="5.10" departSpeed="0.00" departDelay="0.00" arrival="298.00" arrivalLane="312824882#0_1" arrivalPos="42.36" arrivalSpeed="16.87" duration="148.00" routeLength="1822.47" waitingTime="17.00" waitingCount="2" stopTime="0.00" timeLoss="50.26" rerouteNo="8" devices="tripinfo_68 fcd_68" vType="DEFAULT_VEHTYPE" speedFactor="1.04" vaporized=""/>
    <tripinfo id="7" depart="6.00" departLane="597602686#13_0" departPos="5.10" departSpeed="0.00" departDelay="0.00" arrival="299.00" arrivalLane="962896467#3_1" arrivalPos="59.51" arrivalSpeed="24.36" duration="293.00" routeLength="4030.64" waitingTime="34.00" waitingCount="5" stopTime="0.00" timeLoss="102.43" rerouteNo="22" devices="tripinfo_7 fcd_7" vType="DEFAULT_VEHTYPE" speedFactor="0.89" vaporized=""/>
    <tripinfo id="42" depart="88.00" departLane="15435154#0_0" departPos="5.10" departSpeed="0.00" departDelay="0.00" arrival="299.00" arrivalLane="846857035#0_0" arrivalPos="48.29" arrivalSpeed="29.57" duration="211.00" routeLength="3537.16" waitingTime="39.00" waitingCount="3" stopTime="0.00" timeLoss="83.34" rerouteNo="11" devices="tripinfo_42 fcd_42" vType="DEFAULT_VEHTYPE" speedFactor="1.09" vaporized=""/>
    <tripinfo id="81" depart="181.00" departLane="994901460#0_0" departPos="5.10" departSpeed="0.00" departDelay="0.00" arrival="307.00" arrivalLane="978715537#0_1" arrivalPos="75.64" arrivalSpeed="27.53" duration="126.00" routeLength="2263.34" waitingTime="25.00" waitingCount="1" stopTime="0.00" timeLoss="43.77" rerouteNo="10" devices="tripinfo_81 fcd_81" vType="DEFAULT_VEHTYPE" speedFactor="1.00" vaporized=""/>
    <tripinfo id="13" depart="14.00" departLane="-268118792#10_0" departPos="5.10" departSpeed="0.00" departDelay="0.00" arrival="310.00" arrivalLane="478554548#1_2" arrivalPos="78.57" arrivalSpeed="21.58" duration="296.00" routeLength="3171.90" waitingTime="107.00" waitingCount="5" stopTime="0.00" timeLoss="162.56" rerouteNo="18" devices="tripinfo_13 fcd_13" vType="DEFAULT_VEHTYPE" speedFactor="1.12" vaporized=""/>
    <tripinfo id="30" depart="62.00" departLane="962816052#0_0" departPos="5.10" departSpeed="0.00" departDelay="0.00" arrival="316.00" arrivalLane="-968816562#41_0" arrivalPos="533.80" arrivalSpeed="26.03" duration="254.00" routeLength="3181.35" waitingTime="76.00" waitingCount="4" stopTime="0.00" timeLoss="124.59" rerouteNo="25" devices="tripinfo_30 fcd_30" vType="DEFAULT_VEHTYPE" speedFactor="1.18" vaporized=""/>
    <tripinfo id="63" depart="144.00" departLane="423505999#3_0" departPos="5.10" departSpeed="0.00" departDelay="0.00" arrival="316.00" arrivalLane="-556603473#2_0" arrivalPos="1292.22" arrivalSpeed="21.03" duration="172.00" routeLength="2112.15" waitingTime="54.00" waitingCount="2" stopTime="0.00" timeLoss="81.07" rerouteNo="4" devices="tripinfo_63 fcd_63" vType="DEFAULT_VEHTYPE" speedFactor="0.99" vaporized=""/>
    <tripinfo id="100" depart="235.00" departLane="908436863#1_0" departPos="5.10" departSpeed="0.00" departDelay="0.00" arrival="319.00" arrivalLane="1081590615_1" arrivalPos="5.85" arrivalSpeed="23.32" duration="84.00" routeLength="1297.24" waitingTime="3.00" waitingCount="1" stopTime="0.00" timeLoss="18.30" rerouteNo="4" devices="tripinfo_100 fcd_100" vType="DEFAULT_VEHTYPE" speedFactor="1.06" vaporized=""/>
    <tripinfo id="112" depart="277.00" departLane="846813573#1_0" departPos="1.90" departSpeed="0.00" departDelay="0.00" arrival="320.00" arrivalLane="755435065#0_0" arrivalPos="61.83" arrivalSpeed="20.08" duration="43.00" routeLength="533.00" waitingTime="0.00" waitingCount="0" stopTime="0.00" timeLoss="8.69" rerouteNo="3" devices="tripinfo_112 fcd_112" vType="DEFAULT_VEHTYPE" speedFactor="1.10" vaporized=""/>
    <tripinfo id="46" depart="102.00" departLane="954632489_0" departPos="5.10" departSpeed="0.00" departDelay="0.00" arrival="322.00" arrivalLane="423487442#0_0" arrivalPos="48.71" arrivalSpeed="14.67" duration="220.00" routeLength="2550.43" waitingTime="68.00" waitingCount="3" stopTime="0.00" timeLoss="98.38" rerouteNo="15" devices="tripinfo_46 fcd_46" vType="DEFAULT_VEHTYPE" speedFactor="1.00" vaporized=""/>
    <tripinfo id="70" depart="158.00" departLane="962896468#0_0" departPos="5.10" departSpeed="0.00" departDelay="0.00" arrival="324.00" arrivalLane="423487392#0_3" arrivalPos="37.19" arrivalSpeed="15.73" duration="166.00" routeLength="1680.39" waitingTime="62.00" waitingCount="2" stopTime="0.00" timeLoss="85.99" rerouteNo="15" devices="tripinfo_70 fcd_70" vType="DEFAULT_VEHTYPE" speedFactor="1.02" vaporized=""/>
    <tripinfo id="75" depart="164.00" departLane="423487463_0" departPos="5.10" departSpeed="0.00" departDelay="0.00" arrival="324.00" arrivalLane="1055874086#2_0" arrivalPos="152.08" arrivalSpeed="26.34" duration="160.00" routeLength="2098.76" waitingTime="36.00" waitingCount="1" stopTime="0.00" timeLoss="58.24" rerouteNo="5" devices="tripinfo_75 fcd_75" vType="DEFAULT_VEHTYPE" speedFactor="0.98" vaporized=""/>